[Molden Format]
made by pyscf v[2.12.1]
[Atoms] (AU)
N   1   7     0.00000000000000     0.00000000000000     0.00000000000000
N   2   7     0.00000000000000     0.00000000000000     2.07435236693507
[GTO]
1 0
 s    5 1.00
          1712.8415853  -0.0054477995804909
          257.64812677  -0.040627174632423
          58.458245853   -0.18111962250584
          16.198367905   -0.46843975563173
          5.0052600809   -0.44616846289231
 s    1 1.00
         0.58731856571                   1
 s    1 1.00
         0.18764592253                   1
 p    3 1.00
          13.571470233  -0.058848116969522
          2.9257372874   -0.32024624762471
         0.79927750754   -0.75328226520436
 p    1 1.00
         0.21954348034                   1
 d    1 1.00
                     1                   1

2 0
 s    5 1.00
          1712.8415853  -0.0054477995804909
          257.64812677  -0.040627174632423
          58.458245853   -0.18111962250584
          16.198367905   -0.46843975563173
          5.0052600809   -0.44616846289231
 s    1 1.00
         0.58731856571                   1
 s    1 1.00
         0.18764592253                   1
 p    3 1.00
          13.571470233  -0.058848116969522
          2.9257372874   -0.32024624762471
         0.79927750754   -0.75328226520436
 p    1 1.00
         0.21954348034                   1
 d    1 1.00
                     1                   1

[5d]
[7f]
[9g]

[MO]
 Sym= A
 Ene=               0
 Spin= Alpha
 Occup=    1.00000
   1       0.7007804897825
   2    -0.020002151677417
   3    0.0054173399730667
   4    1.0217774469714e-16
   5    9.5981868048071e-17
   6     0.000958294770667
   7    -3.4389278479033e-18
   8    -4.8410291451766e-18
   9    0.00090287746806855
  10    -0.00076207374014585
  11    6.1714460580419e-19
  12    -8.9991607561741e-19
  13    2.7390167655297e-18
  14    -1.0868491294294e-19
  15      0.70078048977551
  16    -0.020002151677177
  17    0.0054173399729208
  18    -8.762744643621e-20
  19    -7.2518373125563e-18
  20    -0.0009582947706278
  21    -2.9380173467427e-19
  22    -2.5578382563926e-18
  23    -0.00090287746803657
  24    -0.00076207374012796
  25    9.4950728494862e-19
  26    9.049627821909e-19
  27    -1.0220434627373e-18
  28    -5.3751954866991e-19
 Sym= A
 Ene=               1
 Spin= Alpha
 Occup=    1.00000
   1     -0.70082704477795
   2     0.024097633851945
   3    -0.014325715007513
   4    1.4946476252591e-16
   5    1.0631129867428e-16
   6    -0.0040241445324452
   7    -7.1248608418633e-18
   8    -9.9151687442254e-20
   9    -0.0030518065019345
  10    0.0019024091847428
  11    1.5289456994057e-19
  12    -5.8395128624047e-19
  13    -2.6769024213469e-18
  14    -5.1653033831253e-20
  15      0.70082704478494
  16    -0.024097633852145
  17     0.014325715007568
  18    8.5580494297985e-19
  19    -8.0076346320401e-18
  20    -0.0040241445324547
  21    3.8868414301935e-19
  22    -3.4572868288631e-18
  23    -0.0030518065019437
  24    -0.0019024091847504
  25    1.8500087370483e-18
  26    -3.641872140771e-19
  27    -1.6467000501542e-18
  28    -3.6801947239777e-19
 Sym= A
 Ene=               2
 Spin= Alpha
 Occup=    1.00000
   1      0.21084163306945
   2       0.4152733090639
   3      0.11612764775512
   4    4.3646274652227e-16
   5    6.2846538529529e-16
   6      -0.2233347250245
   7    -1.3440695102893e-16
   8    -2.0928704538515e-16
   9      0.03349460714598
  10     0.027843572745185
  11    -6.629240848705e-18
  12    -7.061383022408e-17
  13    -2.1969380785306e-17
  14    2.216804709969e-18
  15      0.21084163306944
  16      0.41527330906389
  17      0.11612764775508
  18    7.2348787966475e-17
  19    3.6181054475166e-16
  20       0.2233347250245
  21    -3.1575012380507e-17
  22    -1.3154230857395e-16
  23    -0.033494607145955
  24     0.027843572745182
  25    1.499266349766e-17
  26    8.4599880161626e-17
  27    -6.4339851531543e-18
  28    5.7158457395765e-18
 Sym= A
 Ene=               3
 Spin= Alpha
 Occup=    1.00000
   1      0.19451961720657
   2        0.424871723034
   3      0.36252402223054
   4    -8.0157207712338e-16
   5    -1.3594241665808e-15
   6      0.21770750522214
   7      4.5146924243e-16
   8    5.478222085662e-16
   9     -0.10435514244357
  10    -0.011845440802014
  11    5.762278694011e-17
  12    1.870491230477e-16
  13    2.6256715392105e-18
  14    -2.8774160265089e-17
  15     -0.19451961720657
  16     -0.42487172303397
  17      -0.3625240222305
  18    -6.3559821669338e-16
  19    -1.1570368665296e-15
  20      0.21770750522207
  21    3.8446675497638e-16
  22    6.6411206054603e-16
  23     -0.10435514244354
  24      0.01184544080201
  25    -8.2164985057681e-17
  26    -4.4789323969619e-17
  27    -6.0556614755639e-18
  28    2.5085925841076e-18
 Sym= A
 Ene=               4
 Spin= Alpha
 Occup=    1.00000
   1    -0.071678101983584
   2     -0.14055879957834
   3     -0.29139095222197
   4    -4.865937507016e-16
   5    -1.8842211387292e-15
   6      -0.4522499328304
   7    1.0268968568321e-16
   8    1.0803129756775e-15
   9      0.19942884815735
  10     0.022354682229076
  11    9.0737931528629e-17
  12    4.0782685206135e-16
  13    1.1599456450114e-16
  14    8.6645437411349e-18
  15    -0.071678101983613
  16     -0.14055879957841
  17     -0.29139095222195
  18     -1.0819797075e-15
  19    -1.8848504225893e-15
  20      0.45224993283043
  21    8.1437338904583e-16
  22    1.1390294210324e-15
  23     -0.19942884815741
  24     0.022354682229079
  25    -1.1499952478369e-16
  26    1.7644453816474e-16
  27    -4.0994173051975e-17
  28    -6.6037890875049e-18
 Sym= A
 Ene=               5
 Spin= Alpha
 Occup=    1.00000
   1    -8.2333362201273e-17
   2    -5.3520293327555e-16
   3    8.4943315429685e-16
   4      0.18722264135981
   5      0.38657176756573
   6    -8.4539758242999e-16
   7      -0.1121183979096
   8     -0.23149874898546
   9    1.4274726714397e-15
  10    5.7573343741878e-16
  11    -0.019459288271434
  12    -0.040178962373479
  13    -1.2894684104255e-16
  14    1.5059745101696e-16
  15    -1.2025451545025e-15
  16    -2.5812330127487e-15
  17    -3.4477765904728e-15
  18      0.18722264135981
  19      0.38657176756572
  20    2.5046490647136e-15
  21      -0.1121183979096
  22     -0.23149874898546
  23    -1.3629747618478e-15
  24    -3.4265671403749e-18
  25     0.019459288271434
  26     0.040178962373479
  27    -5.6238161219042e-17
  28    7.1810018957343e-17
 Sym= A
 Ene=               6
 Spin= Alpha
 Occup=    1.00000
   1    3.7012717388867e-17
   2    -3.9878272906176e-17
   3    -6.078885875389e-17
   4      0.38657176756573
   5     -0.18722264135981
   6    -8.4465523041128e-17
   7     -0.23149874898546
   8       0.1121183979096
   9    -5.489082446037e-16
  10    -5.6078988652056e-17
  11    -0.040178962373479
  12     0.019459288271435
  13    1.5007038661744e-16
  14    -2.5451965197499e-16
  15    -9.9923131183499e-17
  16    -1.4234659137902e-16
  17    3.3929129677038e-16
  18      0.38657176756572
  19     -0.18722264135981
  20    -2.4430492954244e-16
  21     -0.23149874898546
  22       0.1121183979096
  23    -3.0722787745136e-16
  24    1.4517874259666e-16
  25     0.040178962373479
  26    -0.019459288271433
  27    -8.8855722167196e-17
  28    -4.0680686262678e-17
 Sym= A
 Ene=               7
 Spin= Alpha
 Occup=    0.00000
   1    -1.018056912326e-16
   2    -3.3990949813899e-16
   3    -3.8534925650015e-15
   4      0.42214038620078
   5     0.083666975408461
   6    -8.3953549203861e-16
   7     -0.65985760312697
   8     -0.13078182438496
   9    -3.337854469812e-15
  10    -3.5401962837197e-16
  11     0.013870182050187
  12    0.0027490290397182
  13    -5.0057301010112e-17
  14    5.2308410033682e-17
  15    -2.1889860143054e-16
  16    -8.478315523127e-16
  17    5.2457477224608e-15
  18     -0.42214038620078
  19     -0.08366697540846
  20    -8.5511088397076e-16
  21      0.65985760312698
  22      0.13078182438496
  23    -2.7252855386835e-15
  24    -5.1098742968645e-16
  25     0.013870182050183
  26    0.0027490290397177
  27    8.2082367465651e-17
  28    -1.0661593841361e-16
 Sym= A
 Ene=               8
 Spin= Alpha
 Occup=    0.00000
   1    -5.9732573073268e-17
   2    -3.3292892446666e-16
   3    -4.7015167056698e-16
   4    -0.083666975408461
   5      0.42214038620078
   6    -7.5697536579541e-17
   7      0.13078182438496
   8     -0.65985760312697
   9    -1.5817548884325e-16
  10    1.5595548229244e-16
  11    -0.0027490290397181
  12     0.013870182050186
  13    -9.2850593802109e-17
  14    1.3020051575011e-16
  15    -6.1116111061223e-18
  16    -5.3844853465472e-16
  17    9.7658937192594e-16
  18      0.08366697540846
  19     -0.42214038620078
  20    -3.6719216296193e-16
  21     -0.13078182438496
  22      0.65985760312699
  23    -7.99485264286e-16
  24    -1.6767130933256e-16
  25    -0.0027490290397175
  26     0.013870182050184
  27    6.6097513111871e-17
  28    -1.1367202239069e-16
 Sym= A
 Ene=               9
 Spin= Alpha
 Occup=    0.00000
   1      0.18704284022989
   2        1.151192017044
   3     -0.87270618258727
   4    -2.5321202570679e-15
   5    8.2940072634883e-16
   6    -0.0033721070376895
   7    -3.6616266288869e-15
   8    -1.5886553551641e-16
   9     -0.38132691286926
  10     0.037727348961595
  11    1.6822857038304e-16
  12    -5.7756390086725e-17
  13    -3.5218670003207e-17
  14    -3.6501744857193e-17
  15      0.18704284022947
  16       1.1511920170428
  17     -0.87270618260439
  18    -1.4016492175364e-15
  19    1.0924212878388e-15
  20    0.0033721070372499
  21    -2.527747059989e-16
  22    1.6287956320163e-15
  23      0.38132691287987
  24     0.037727348961607
  25    -2.2168662156659e-16
  26    4.0156631236997e-17
  27    -3.9113182141971e-17
  28    -1.7442839182766e-17
 Sym= A
 Ene=              10
 Spin= Alpha
 Occup=    0.00000
   1      0.14409755332372
   2      0.45603104008621
   3        4.917566774468
   4    -1.2167500123869e-15
   5    -5.0776233491036e-17
   6     -0.13863226060484
   7    -2.022214709347e-15
   8    -3.8742055188983e-16
   9        3.131903697104
  10    -0.015055432558709
  11    8.4808415747775e-17
  12    -1.8873349259137e-17
  13    -1.2476059683436e-16
  14    -1.6316702858636e-17
  15     -0.14409755332426
  16     -0.45603104008973
  17      -4.9175667744655
  18    -5.6985090873821e-16
  19    -3.0184912797874e-16
  20     -0.13863226060523
  21    1.4474811826469e-16
  22    -2.1671692910292e-16
  23       3.1319036971021
  24     0.015055432558556
  25    -6.7939986117179e-17
  26    -3.2463436385495e-17
  27    2.847351379287e-17
  28    7.435788320043e-19
 Sym= A
 Ene=              11
 Spin= Alpha
 Occup=    0.00000
   1     0.073617475659004
   2      0.21241429904681
   3     -0.42134341334756
   4    2.8785204191991e-15
   5    -1.5380592110459e-16
   6      0.53030822514052
   7    2.184947087432e-15
   8    1.183811039214e-16
   9      0.89355391918545
  10    -0.043575035667881
  11    -3.2716264150294e-16
  12    -1.3088938353519e-16
  13    4.7444063890373e-18
  14    1.9808397684422e-17
  15     0.073617475659521
  16      0.21241429904982
  17     -0.42134341335659
  18    2.4453389845355e-15
  19    2.4124663170182e-17
  20     -0.53030822514117
  21    2.5844184298467e-15
  22    -4.6981820632758e-17
  23     -0.89355391918306
  24    -0.043575035667955
  25    3.385142897084e-16
  26    3.5264409259481e-17
  27    -1.6473467656369e-18
  28    1.3144509319123e-17
 Sym= A
 Ene=              12
 Spin= Alpha
 Occup=    0.00000
   1     -0.15724521824088
   2      -1.0347238244527
   3        4.717426871004
   4    -5.8845332796761e-15
   5    6.1057416460302e-15
   6     -0.34595266326461
   7    -5.1308398253935e-15
   8    5.4114299699423e-15
   9       1.6861882895081
  10    0.0075436101865349
  11    7.1978484255895e-16
  12    -9.3116457207124e-16
  13    -4.4041294296164e-17
  14    1.4461989312258e-17
  15      0.15724521824065
  16       1.0347238244519
  17      -4.7174268710028
  18    -5.5858981261481e-15
  19    7.2009805122204e-15
  20     -0.34595266326329
  21    -5.4132653721263e-15
  22    7.0526311390054e-15
  23       1.6861882895102
  24    -0.0075436101864309
  25    -7.0480321343744e-16
  26    7.7440540520099e-16
  27    3.7209751047626e-17
  28    -1.5642019330304e-17
 Sym= A
 Ene=              13
 Spin= Alpha
 Occup=    0.00000
   1    1.6361345500155e-15
   2    1.0611437182426e-14
   3    -6.0695519743562e-14
   4     -0.31489966105096
   5      0.57640118897496
   6    5.5542571225924e-15
   7     -0.29820685414013
   8      0.54584620610003
   9    -1.996499418597e-14
  10    -2.5657481064621e-16
  11     0.039026877205349
  12    -0.071435892779515
  13    8.3435467397797e-19
  14    2.5005690298568e-16
  15    -2.2917025985196e-15
  16    -1.5961953175423e-14
  17    6.3720561965811e-14
  18     -0.31489966105093
  19      0.57640118897488
  20    3.6365579336248e-15
  21     -0.29820685414007
  22       0.5458462060999
  23    -2.5263766406387e-14
  24    -2.0103129302127e-16
  25    -0.039026877205349
  26     0.071435892779516
  27    5.9497765885121e-18
  28    6.3251488186894e-17
 Sym= A
 Ene=              14
 Spin= Alpha
 Occup=    0.00000
   1    -6.6101712698505e-17
   2    -3.0453948319835e-16
   3    2.0019280391459e-14
   4      0.57640118897495
   5      0.31489966105097
   6    -3.1018539501313e-15
   7      0.54584620610001
   8      0.29820685414014
   9    5.420602727677e-15
  10    4.9670991074722e-16
  11    -0.071435892779516
  12    -0.039026877205349
  13    4.846432122536e-17
  14    -3.1859853542932e-16
  15    3.159833998211e-16
  16    3.7145736899501e-15
  17    -2.0887435066611e-14
  18      0.57640118897489
  19      0.31489966105093
  20    5.5063525326638e-16
  21      0.54584620609992
  22      0.29820685414006
  23    1.3354251485695e-14
  24    6.4898774110942e-17
  25     0.071435892779516
  26     0.039026877205349
  27    2.4399407814708e-17
  28    -4.761979806793e-16
 Sym= A
 Ene=              15
 Spin= Alpha
 Occup=    0.00000
   1    -1.8177455413777e-16
   2    -9.2281620679159e-16
   3    -4.4723260425839e-15
   4     -0.44855742738828
   5     -0.58859240705366
   6    4.8111831862679e-16
   7     -0.69071833774819
   8     -0.90635344370163
   9    -2.0670003702009e-15
  10    -3.8912304943574e-16
  11    -0.019639534504879
  12    -0.025770793619331
  13    8.8414937091782e-17
  14    3.5016499962345e-17
  15    -2.5703912228735e-16
  16    -1.3676317514957e-15
  17    6.2464856486393e-15
  18      0.44855742738831
  19      0.58859240705373
  20    4.786717389049e-16
  21      0.69071833774822
  22      0.90635344370169
  23    -3.0252240483769e-15
  24    1.7404106153595e-16
  25    -0.019639534504871
  26    -0.025770793619318
  27    -9.8429729459693e-17
  28    3.0418059858875e-17
 Sym= A
 Ene=              16
 Spin= Alpha
 Occup=    0.00000
   1    -1.4804202917265e-16
   2    -8.8603000259449e-16
   3    -4.3578200361782e-15
   4     -0.58859240705367
   5      0.44855742738827
   6    -7.0306792620617e-16
   7     -0.90635344370164
   8      0.69071833774818
   9    -3.0487993519507e-15
  10    -2.5543040598698e-16
  11    -0.025770793619329
  12     0.019639534504881
  13    -5.6109816135352e-17
  14    -1.9230279364511e-16
  15    -1.0934593117289e-16
  16    -5.5021618502828e-16
  17    5.4320797443998e-15
  18      0.58859240705372
  19     -0.44855742738832
  20    -6.2901129586746e-16
  21      0.90635344370169
  22     -0.69071833774822
  23    -3.654717033594e-15
  24    1.3875853299194e-16
  25    -0.025770793619319
  26     0.019639534504871
  27    -6.4941552931411e-17
  28    -1.8203761178813e-17
 Sym= A
 Ene=              17
 Spin= Alpha
 Occup=    0.00000
   1     -0.13572384310238
   2     -0.68833019621259
   3       5.0054744535924
   4    4.5014821247395e-17
   5    -9.9849619769357e-16
   6      0.79092908765777
   7    -1.2116384437481e-15
   8    1.1037788338862e-15
   9       2.7861179414615
  10       0.2172149701967
  11    -2.78062424148e-17
  12    2.9249535300335e-16
  13    4.4245100507421e-15
  14    -2.5601018962303e-16
  15      0.13572384310234
  16      0.68833019621242
  17      -5.0054744535923
  18    1.8704107679952e-16
  19    -1.1401337754099e-15
  20      0.79092908765785
  21    1.3176230689137e-15
  22    -1.3261922144074e-15
  23       2.7861179414615
  24     -0.21721497019669
  25    -4.1675439357933e-16
  26    4.5585354774498e-15
  27    2.1877953750738e-15
  28    -1.5074863402823e-16
 Sym= A
 Ene=              18
 Spin= Alpha
 Occup=    0.00000
   1    -4.9893244974069e-16
   2    -2.6716010298447e-15
   3    1.874260353702e-14
   4    -0.017476096351053
   5      0.23941727289418
   6    2.7182871434135e-15
   7    -0.0039025447924832
   8     0.053463691936408
   9    1.0428298944358e-14
  10     1.08166013084e-15
  11    -0.044018017183331
  12      0.60303361921024
  13    -4.4633171098832e-15
  14    6.3099093845272e-15
  15    4.2263352114911e-16
  16    1.9630946890875e-15
  17    -1.8274066320342e-14
  18    -0.017476096351053
  19       0.2394172728942
  20    2.8486734306858e-15
  21    -0.0039025447924831
  22     0.053463691936413
  23    1.0328479000541e-14
  24    -6.0483222227771e-16
  25      0.04401801718333
  26     -0.60303361921023
  27    -4.9134282975016e-15
  28    5.9962630009865e-15
 Sym= A
 Ene=              19
 Spin= Alpha
 Occup=    0.00000
   1    3.6385748873585e-17
   2    1.8942181973515e-16
   3    6.7899098289103e-17
   4      0.23941727289418
   5     0.017476096351053
   6    -6.0858622879116e-17
   7      0.05346369193641
   8     0.003902544792484
   9    1.0562382103563e-16
  10    1.2271800925309e-16
  11      0.60303361921025
  12     0.044018017183333
  13    7.7141435527502e-15
  14    1.3760571409764e-14
  15    -1.2530553239916e-17
  16    -4.882190138125e-17
  17    -2.0708518988096e-16
  18      0.23941727289419
  19     0.017476096351054
  20    -1.4164030184074e-16
  21      0.05346369193641
  22    0.0039025447924823
  23    1.1750966018783e-16
  24    5.954640419931e-18
  25     -0.60303361921023
  26    -0.044018017183328
  27    6.9912208532577e-15
  28    1.4014087758513e-14
 Sym= A
 Ene=              20
 Spin= Alpha
 Occup=    0.00000
   1    3.327740807167e-18
   2    2.0525330127901e-17
   3    1.3529200284731e-16
   4    -4.4742647971808e-15
   5    -2.2464804362254e-15
   6    -1.4800567927831e-17
   7    -1.2261492244034e-15
   8    -2.8064258851059e-16
   9    8.0154320729918e-17
  10    -2.7509533186902e-17
  11    -1.2390780004751e-14
  12    -6.5258402230199e-15
  13     0.042182069195189
  14      0.66792488486976
  15    -1.0924220635876e-18
  16    2.177232274441e-17
  17    -1.8059539731576e-16
  18    -4.1393262588655e-15
  19    -2.6082643054988e-15
  20    1.0501968295779e-17
  21    -2.3961050302074e-16
  22    -6.6385516968501e-16
  23    8.9604618006712e-17
  24    -1.5695248618318e-17
  25    1.2445920838808e-14
  26    6.0176507459672e-15
  27     0.042182069195188
  28      0.66792488486973
 Sym= A
 Ene=              21
 Spin= Alpha
 Occup=    0.00000
   1    7.2775322390704e-16
   2    3.9626579493672e-15
   3    -2.4822574896997e-14
   4    -2.7930325736346e-15
   5    1.7022775160609e-15
   6    -4.1448671108962e-15
   7    -1.032656216191e-15
   8    1.3698462558679e-16
   9    -1.4087687696629e-14
  10    -1.7955594203311e-15
  11    -6.2199407198446e-15
  12    4.5364911559861e-15
  13      0.66792488486976
  14    -0.042182069195189
  15    -6.1857775604925e-16
  16    -2.8423308643148e-15
  17    2.4347136797646e-14
  18    -2.5373544352614e-15
  19    1.9513200139789e-15
  20    -3.6099535755538e-15
  21    -2.1709496588708e-16
  22    6.3705682318411e-16
  23    -1.32207797621e-14
  24    4.6964592469283e-16
  25    6.1616224075125e-15
  26    -4.5087776435976e-15
  27      0.66792488486973
  28    -0.042182069195188
 Sym= A
 Ene=              22
 Spin= Alpha
 Occup=    0.00000
   1    -7.2269497103348e-18
   2    -7.1978108130381e-17
   3    -3.8522169172154e-16
   4    -2.2658717394187e-16
   5    1.9028078682802e-16
   6    1.219455567257e-16
   7    2.8544060657782e-16
   8    3.3604548203892e-16
   9    -1.3698139391985e-16
  10    1.353211189328e-16
  11    8.0611450386664e-16
  12    -3.7408074042503e-16
  13    -0.036626617041562
  14     -0.75131205637555
  15    -2.1318202921491e-17
  16    -2.4778634369596e-16
  17    6.6957622552674e-16
  18    1.3292042533151e-16
  19    1.7151218823408e-16
  20    -4.7961003943741e-17
  21    -1.7562585848173e-16
  22    1.662086037612e-16
  23    -2.3392192789691e-16
  24    1.1255716787394e-16
  25    9.6924797461484e-16
  26    -7.0962088741286e-16
  27     0.036626617041564
  28      0.75131205637557
 Sym= A
 Ene=              23
 Spin= Alpha
 Occup=    0.00000
   1    -2.7339528880781e-16
   2    -2.3333521375852e-15
   3    8.8348779727644e-15
   4    5.7837434782415e-17
   5    6.3910150271724e-17
   6    1.7462864298141e-15
   7    1.6150514963451e-17
   8    -2.3434523726017e-16
   9    5.9917326461895e-15
  10    3.2672220133596e-15
  11    5.1624282467103e-16
  12    -5.4809923423951e-16
  13     -0.75131205637555
  14     0.036626617041562
  15    -3.286808527768e-18
  16    -1.1374518884175e-15
  17    -7.3754676408505e-15
  18    2.8347965825563e-16
  19    -2.8740141469544e-17
  20    -2.4110621477234e-16
  21    -3.2801819403461e-17
  22    3.1938572214656e-16
  23    3.0868156103692e-15
  24     1.44683594676e-15
  25    8.0691304717485e-17
  26    -9.3794675152231e-16
  27      0.75131205637557
  28    -0.036626617041564
 Sym= A
 Ene=              24
 Spin= Alpha
 Occup=    0.00000
   1    -0.041636072423181
   2     -0.54525666830182
   3      0.24359258677687
   4    -2.4928713809805e-16
   5    2.235097759958e-15
   6      0.32819831089582
   7    -3.4919126993616e-16
   8    -4.3234177211582e-15
   9      0.45168280371873
  10      0.74509294298559
  11    9.4380796621078e-16
  12    -1.3427543118752e-14
  13       2.979513816e-15
  14    -2.1371507167155e-17
  15    -0.041636072423187
  16     -0.54525666830186
  17      0.24359258677686
  18    -1.9550900642305e-16
  19    -2.569030405367e-15
  20     -0.32819831089585
  21    8.7946614320701e-17
  22    4.6150364209019e-15
  23     -0.45168280371873
  24      0.74509294298557
  25     9.76232036747e-16
  26    -1.3077185045859e-14
  27    -1.781684751542e-15
  28    8.5772949383631e-19
 Sym= A
 Ene=              25
 Spin= Alpha
 Occup=    0.00000
   1    -2.3817214309618e-16
   2    -5.7276131639593e-15
   3    -9.0508352194729e-15
   4     0.013370426843234
   5     -0.17611676368985
   6    2.6174314627663e-15
   7     -0.02500091365264
   8      0.32931484188331
   9    -1.0215731510364e-15
  10    9.4001210563577e-15
  11    -0.074419084099273
  12      0.98025653197137
  13    -5.5674019296817e-16
  14    -2.3336586927324e-16
  15    -8.6916770887758e-16
  16    -8.9570389341983e-15
  17    1.5926355632358e-14
  18    -0.013370426843236
  19      0.17611676368985
  20    -6.3163645488572e-15
  21      0.02500091365264
  22     -0.32931484188331
  23    -1.2748557962939e-14
  24    1.0744078146288e-14
  25    -0.074419084099271
  26      0.98025653197138
  27    5.5133609879934e-16
  28    6.3347156683444e-16
 Sym= A
 Ene=              26
 Spin= Alpha
 Occup=    0.00000
   1    -1.3411957144829e-17
   2    -8.4456398475873e-17
   3    -1.4838047057987e-16
   4     -0.17611676368985
   5    -0.013370426843235
   6    8.5299676296056e-17
   7      0.32931484188331
   8      0.02500091365264
   9    -8.0318592642491e-17
  10    -1.0373836488939e-17
  11      0.98025653197137
  12     0.074419084099272
  13    2.6092522092736e-16
  14    6.9848838357065e-16
  15    1.0298524698916e-17
  16    3.0238476624725e-17
  17    1.8011487301506e-16
  18      0.17611676368985
  19     0.013370426843235
  20    6.4998069193629e-17
  21     -0.32931484188331
  22     -0.02500091365264
  23    -1.0753599249119e-16
  24    8.7694744963882e-17
  25      0.98025653197138
  26     0.074419084099273
  27    -2.4257724879559e-16
  28    -4.9987212184801e-16
 Sym= A
 Ene=              27
 Spin= Alpha
 Occup=    0.00000
   1      0.14400460046347
   2      0.83827511890771
   3       2.7829023755278
   4    -4.8273217519819e-16
   5    -2.5035891980446e-16
   6     -0.91639743453419
   7    -1.0883177172159e-16
   8    -1.3171479885358e-17
   9       1.5961801235453
  10       1.1744177244684
  11    1.7211908635809e-17
  12    9.4396255798253e-17
  13    4.0750993115826e-16
  14    -1.1535225429803e-17
  15     -0.14400460046348
  16     -0.83827511890771
  17      -2.7829023755278
  18    2.4207098676301e-17
  19    4.8783215516074e-17
  20     -0.91639743453418
  21    6.7134715573078e-18
  22    -2.4197634304355e-17
  23       1.5961801235453
  24      -1.1744177244684
  25    4.4283564284479e-17
  26    1.2820790397557e-16
  27    -3.4267114514102e-16
  28    1.3598552182321e-17
