[Molden Format]
made by pyscf v[2.12.1]
[Atoms] (AU)
N   1   7     0.00000000000000     0.00000000000000     0.00000000000000
N   2   7     0.00000000000000     0.00000000000000     2.07435236693507
[GTO]
1 0
 s    6 1.00
          19730.800647  0.00058626402628763
          2957.8958745  0.0045428820586397
          673.22133595   0.023558413450084
          190.68249494   0.094709193292923
          62.295441898    0.29719784913376
          22.654161182    0.66916246895232
 s    2 1.00
          8.9791477428    0.64596683630063
           3.686300237    0.38700574393705
 s    1 1.00
         0.84660076805                   1
 s    1 1.00
         0.33647133771                   1
 s    1 1.00
         0.13647653675                   1
 p    4 1.00
           49.20038051   0.011448825101764
          11.346790537   0.078422337970864
          3.4273972411     0.3081809473883
          1.1785525134    0.72027196368413
 p    1 1.00
         0.41642204972                   1
 p    1 1.00
         0.14260826011                   1
 d    1 1.00
                 1.654                   1
 d    1 1.00
                 0.469                   1
 f    1 1.00
                 1.093                   1

2 0
 s    6 1.00
          19730.800647  0.00058626402628763
          2957.8958745  0.0045428820586397
          673.22133595   0.023558413450084
          190.68249494   0.094709193292923
          62.295441898    0.29719784913376
          22.654161182    0.66916246895232
 s    2 1.00
          8.9791477428    0.64596683630063
           3.686300237    0.38700574393705
 s    1 1.00
         0.84660076805                   1
 s    1 1.00
         0.33647133771                   1
 s    1 1.00
         0.13647653675                   1
 p    4 1.00
           49.20038051   0.011448825101764
          11.346790537   0.078422337970864
          3.4273972411     0.3081809473883
          1.1785525134    0.72027196368413
 p    1 1.00
         0.41642204972                   1
 p    1 1.00
         0.14260826011                   1
 d    1 1.00
                 1.654                   1
 d    1 1.00
                 0.469                   1
 f    1 1.00
                 1.093                   1

[5d]
[7f]
[9g]

[MO]
 Sym= A
 Ene=               0
 Spin= Alpha
 Occup=    1.00000
   1      0.31741014177941
   2      0.44557544529714
   3     0.014257064621089
   4    -0.0041795303654701
   5    0.0010856229928156
   6    2.1844559751131e-17
   7    5.0039984300044e-17
   8    0.0018374945157547
   9    -3.4531685018091e-17
  10    8.8665422843164e-18
  11    -0.00071483427658702
  12    -4.3169261954224e-19
  13    -1.2341368248106e-18
  14    0.0002312013926513
  15    0.00051301377952462
  16    -1.5392433605205e-19
  17    -1.4784494644898e-20
  18    -1.568196886244e-18
  19    -5.0727032661849e-20
  20    -0.00049027695480409
  21     -4.5544784894e-19
  22    4.7285674669366e-19
  23    1.9519517439566e-18
  24    -1.9227306527689e-19
  25    -5.097515721982e-05
  26    -1.5710917660669e-19
  27    3.0081422793286e-19
  28    -1.5011071950388e-19
  29    -1.8071573816539e-20
  30    3.3771156836985e-20
  31    3.6991927496438e-20
  32      0.31741014177747
  33      0.44557544529443
  34     0.014257064620996
  35    -0.0041795303653589
  36    0.0010856229927534
  37    1.372846432863e-18
  38    1.9645021633492e-18
  39    -0.0018374945157452
  40    -2.0539691115186e-18
  41    -8.555313240416e-19
  42    0.00071483427653233
  43    2.3571682441974e-19
  44    1.2219064181606e-18
  45    -0.00023120139263218
  46    0.00051301377952196
  47    -3.0068870864102e-19
  48    -1.3028243704724e-20
  49    -6.6337195696446e-19
  50    3.0207932265386e-19
  51    -0.00049027695478937
  52    -1.6893317255805e-19
  53    -8.2848130971879e-21
  54    1.1451144553817e-18
  55    3.7914001438839e-19
  56    5.0975157219651e-05
  57    -5.3077538134802e-19
  58    5.3222860873741e-19
  59    5.5107708345579e-20
  60    -2.1644690575051e-20
  61    -2.9669187020843e-21
  62    -1.456932312829e-20
 Sym= A
 Ene=               1
 Spin= Alpha
 Occup=    1.00000
   1     -0.31760946144181
   2      -0.4458656304831
   3    -0.013932574814897
   4    0.0061959745786667
   5    -0.0066204993065989
   6    1.7771403652513e-17
   7    4.9320138445301e-17
   8    -0.001443887672102
   9    -3.2848733892876e-17
  10    1.0232433340771e-17
  11    0.0011024670315384
  12    -1.6359915735971e-18
  13    -2.0275792424146e-18
  14    -0.0020082342995673
  15    -0.00054920719811765
  16    1.6736102766002e-19
  17    -5.3042271901565e-19
  18    1.5958061172309e-18
  19    1.1394527213778e-19
  20    -0.00019506881291833
  21    6.4237827130946e-19
  22    -1.6729876052416e-19
  23    -3.5512550544968e-18
  24    1.7983997493881e-19
  25    -0.0002752580419692
  26    -1.4289358112982e-19
  27    3.9309568131391e-19
  28    -5.3791677651006e-19
  29    1.9828520241185e-20
  30    -2.438614399395e-20
  31    -8.0824819938708e-24
  32      0.31760946144374
  33      0.44586563048581
  34     0.013932574814981
  35    -0.0061959745786892
  36    0.0066204993066043
  37    7.8165119194928e-19
  38    2.321839586618e-18
  39    -0.0014438876721129
  40    -2.9814214275968e-18
  41    -8.4227361178169e-19
  42    0.0011024670315424
  43    4.7921746721134e-19
  44    1.4830715805043e-18
  45    -0.0020082342995685
  46    0.00054920719812086
  47    -4.1715198578046e-19
  48    -1.3234407568669e-19
  49    -1.2090777890454e-18
  50    2.9545426353657e-19
  51    0.0001950688129157
  52    1.9385586442392e-19
  53    3.1819245186452e-20
  54    3.3072185693136e-18
  55    2.4169158201957e-19
  56    -0.0002752580419691
  57    -1.0453112962233e-19
  58    5.9114118255161e-19
  59    -1.205013685507e-18
  60    -1.6630120970792e-20
  61    1.3941390310989e-20
  62    -3.9831173236855e-20
 Sym= A
 Ene=               2
 Spin= Alpha
 Occup=    1.00000
   1    -0.074683508975726
   2     -0.17328617964645
   3      0.25932963058476
   4      0.25168035685504
   5     0.039990444191853
   6    -2.2290653669515e-17
   7    8.7345472519961e-17
   8      0.16611442786737
   9    -1.0959731754469e-16
  10    -1.9250376251295e-17
  11     0.094844225049694
  12    2.4648636118667e-18
  13    -1.1186944526237e-17
  14    0.0076537538748948
  15     0.019285785959729
  16    2.6479870678563e-18
  17    1.9923919375105e-18
  18    1.9156745350933e-18
  19    9.8187000544414e-19
  20     0.021687116740408
  21    -3.532881525815e-18
  22    1.429917488512e-17
  23    4.9192886815177e-19
  24    -3.6757754718671e-18
  25    0.0056646776698489
  26    6.0015516550395e-18
  27    5.8963217697456e-19
  28    -8.6671531820609e-18
  29    -3.4824861411359e-19
  30    8.2084371760803e-19
  31    8.7831880690444e-19
  32    -0.074683508975725
  33     -0.17328617964645
  34       0.2593296305847
  35      0.25168035685553
  36      0.03999044419176
  37    1.2743628066784e-16
  38    -6.061216249002e-17
  39     -0.16611442786736
  40    1.1477068627522e-16
  41    -5.7303813570352e-17
  42    -0.094844225050018
  43    1.6553153717103e-17
  44    -2.3793927215323e-18
  45    -0.0076537538748728
  46     0.019285785959733
  47    -9.6582532325925e-18
  48    3.9189255954322e-18
  49    5.7201427705634e-18
  50    3.7212211198525e-19
  51     0.021687116740518
  52    -2.259066877513e-17
  53    1.3337696802164e-17
  54    -1.1076371865117e-18
  55    6.4864463048726e-18
  56    -0.0056646776698609
  57    -2.05013140554e-18
  58    -5.4829914244799e-19
  59    -8.2698443880266e-18
  60    1.523553906259e-18
  61    -3.2858545739845e-19
  62    2.3661887381137e-19
 Sym= A
 Ene=               3
 Spin= Alpha
 Occup=    1.00000
   1    -0.068557993863846
   2     -0.16238304015328
   3      0.25427634687968
   4      0.38371445865366
   5      0.18385826475173
   6    -2.3908475460387e-16
   7    -2.4920846403211e-16
   8     -0.15471338963123
   9    -4.5490628339902e-16
  10    -2.0881617482773e-17
  11     -0.12096194283157
  12    -1.3638039824397e-16
  13    -9.8791244232446e-17
  14    -0.047568141019833
  15    -0.0037086059288151
  16    5.8001955259857e-18
  17    2.2807959025292e-18
  18    -1.4498969079636e-16
  19    -1.664609680824e-17
  20    -0.0037528733372186
  21    -5.9726458275578e-18
  22    1.0913487742504e-18
  23    1.8305767446907e-16
  24    1.3461233442977e-17
  25    0.00012395720110759
  26    3.2797243067861e-17
  27    -4.397643703282e-17
  28    2.7894173709938e-16
  29    2.8537004462059e-18
  30    5.633881333607e-19
  31    -2.4892513149361e-19
  32     0.068557993863844
  33      0.16238304015328
  34     -0.25427634687967
  35     -0.38371445865365
  36     -0.18385826475172
  37    -2.0294599291691e-16
  38    -9.1250103708452e-17
  39     -0.15471338963121
  40    -2.8734036762849e-16
  41    -6.5483535123105e-17
  42     -0.12096194283155
  43    -3.8509055427026e-17
  44    -3.1124845749827e-17
  45    -0.047568141019825
  46    0.0037086059288144
  47     4.90619739962e-17
  48    -2.321366780724e-17
  49    1.269928761162e-16
  50    3.3608034482134e-18
  51    0.0037528733372161
  52    9.9110108170842e-17
  53    -5.1527622787288e-17
  54    -1.707277586521e-16
  55    2.6679283399133e-18
  56    0.00012395720110884
  57    -5.598292197033e-17
  58    4.2565990809974e-17
  59    2.5757152575917e-16
  60    1.1612529963791e-18
  61    -1.5100953889645e-19
  62    1.2910251334038e-18
 Sym= A
 Ene=               4
 Spin= Alpha
 Occup=    1.00000
   1     0.024154030944689
   2     0.057462697225438
   3    -0.085525584704304
   4     -0.18009895002376
   5     -0.18127948952017
   6    -8.0596019219426e-16
   7    -1.8891938060335e-16
   8      0.33726342976993
   9    -5.8845411419163e-16
  10    -2.0667942777177e-16
  11      0.25256539825198
  12    -8.300436573355e-16
  13    -1.3239126536439e-16
  14      0.10093140794031
  15     0.017861681544084
  16    4.7080829106395e-17
  17    -1.1177362910646e-17
  18    -5.0187215497273e-16
  19    1.6592289863345e-16
  20      0.01557985168163
  21    2.2272626261933e-17
  22    1.7704719545313e-17
  23    6.1172943888806e-16
  24    9.491368395966e-17
  25    0.0033961696390537
  26    1.3924540403805e-16
  27    -1.591328261265e-16
  28    9.1482337886328e-16
  29    1.4469516935367e-17
  30    8.6430547270257e-21
  31    7.8744934394713e-19
  32     0.024154030944693
  33     0.057462697225447
  34    -0.085525584704432
  35     -0.18009895002272
  36     -0.18127948952057
  37    -3.6745953137433e-16
  38    -5.5527141910416e-16
  39     -0.33726342976993
  40    -6.3039013792022e-16
  41    -5.6077864763466e-16
  42     -0.25256539825268
  43    5.8613783466368e-18
  44    -2.1885045436438e-16
  45     -0.10093140794019
  46     0.017861681544094
  47    1.1682762467001e-16
  48    -7.2170052956077e-17
  49    3.8416805043676e-16
  50    1.1088596597197e-17
  51     0.015579851681865
  52    2.3421214201532e-16
  53    -1.3645600664969e-16
  54    -5.5337805288732e-16
  55    1.6580912652691e-17
  56    -0.0033961696390791
  57    -1.4922222540229e-16
  58    1.3283898205247e-16
  59    7.917517653118e-16
  60    -8.0430701282039e-19
  61    -6.7291167538721e-20
  62    1.5061815203734e-18
 Sym= A
 Ene=               5
 Spin= Alpha
 Occup=    1.00000
   1    5.6316665339594e-18
   2    -3.1674014846299e-17
   3    1.5680406075288e-15
   4    -1.037725264867e-14
   5    5.783218648604e-15
   6     0.046511539962383
   7      0.30069800831494
   8    8.072993866541e-16
   9     0.042012454901851
  10      0.27161133610336
  11    -6.2770533315711e-15
  12     0.019081965289901
  13      0.12336527584442
  14    2.6408041880895e-15
  15    5.8291735706967e-17
  16    0.0030573902806797
  17     0.019766087486792
  18    -3.0344344766755e-16
  19    -3.7270861414109e-17
  20    -2.0445142588872e-15
  21    0.0058006026873077
  22     0.037501008921879
  23    1.3923043286607e-16
  24    5.2825150526836e-17
  25    -1.2886856350591e-16
  26    0.0012583218505076
  27    0.0081350751786085
  28    2.5329006950029e-16
  29    -1.4686295358094e-16
  30    -6.4741269635371e-18
  31    -2.4928889128618e-17
  32    4.0585721467893e-17
  33    -9.4502176989823e-17
  34    2.8066297332767e-16
  35    7.2890736281618e-15
  36    -5.3824373741004e-15
  37     0.046511539962383
  38      0.30069800831493
  39    -6.5715766073848e-16
  40     0.042012454901852
  41      0.27161133610336
  42    -6.4388228005866e-15
  43     0.019081965289903
  44      0.12336527584442
  45    1.7690319616206e-15
  46    2.6139683289139e-16
  47    -0.0030573902806798
  48    -0.019766087486791
  49    1.8709027632853e-16
  50    4.2711530070996e-18
  51    2.0076594600868e-15
  52    -0.0058006026873086
  53    -0.037501008921884
  54    -1.1021753408999e-16
  55    -1.294344447168e-17
  56    -1.386963529287e-16
  57    0.0012583218505079
  58    0.0081350751786087
  59    2.2639089988158e-17
  60    1.1764623168583e-17
  61    2.4316622661958e-18
  62    7.564248289246e-18
 Sym= A
 Ene=               6
 Spin= Alpha
 Occup=    1.00000
   1    -5.7019196063244e-18
   2    2.5304183478091e-17
   3    -4.0901032890321e-17
   4    -1.2284018593841e-16
   5    1.6112574122592e-15
   6      0.30069800831494
   7    -0.046511539962383
   8    6.3765490155605e-16
   9      0.27161133610336
  10    -0.042012454901851
  11    9.2900015423537e-16
  12      0.12336527584442
  13    -0.019081965289902
  14    6.0664370303649e-16
  15    -8.9558848961017e-17
  16     0.019766087486792
  17    -0.0030573902806797
  18    5.5805928427519e-17
  19    -1.0053497143055e-16
  20    3.6407023296517e-16
  21      0.03750100892188
  22    -0.0058006026873072
  23    8.7133843192897e-17
  24    3.7837416852922e-16
  25    7.2632089398262e-18
  26     0.008135075178609
  27    -0.0012583218505074
  28    -6.9217916791145e-18
  29    9.3499622392345e-17
  30    -3.6660080060807e-17
  31    -1.0864893987529e-16
  32    8.0722842467879e-17
  33    3.0100346447572e-16
  34    -2.935389932088e-16
  35    -1.5981715656614e-15
  36    -1.7293233879498e-15
  37      0.30069800831493
  38    -0.046511539962383
  39    -7.5762997137935e-16
  40      0.27161133610336
  41    -0.042012454901851
  42    -1.8469520493828e-16
  43      0.12336527584442
  44    -0.019081965289902
  45    1.7543321466063e-16
  46    1.0327479775492e-16
  47    -0.019766087486791
  48    0.0030573902806799
  49    4.9450422322365e-17
  50    4.8646481899181e-19
  51    1.014664194903e-17
  52    -0.037501008921883
  53    0.0058006026873087
  54    2.4230459127403e-17
  55    2.6123032744332e-17
  56    -1.5531771469218e-16
  57    0.0081350751786085
  58    -0.0012583218505082
  59    5.6298218432372e-17
  60    -1.5476918743213e-17
  61    -3.7116796053696e-17
  62    -5.8236175089315e-17
 Sym= A
 Ene=               7
 Spin= Alpha
 Occup=    0.00000
   1    -4.0667446504834e-18
   2    1.3769181351755e-17
   3    1.8443711503609e-16
   4    -1.8559573357334e-15
   5    -2.5229659924482e-15
   6      0.17818164813842
   7     -0.23596241210724
   8    2.0258146034197e-16
   9      0.16140036149223
  10     -0.21373928802758
  11    -7.1227490238121e-16
  12      0.44119847424988
  13     -0.58427036279944
  14    -1.6986707806215e-15
  15    -4.966324923228e-17
  16    -0.0078002788702592
  17     0.010329754138908
  18    -1.1139475058816e-16
  19    2.1893329795021e-16
  20    -4.7941833629925e-16
  21    -0.0052665454901963
  22    0.0069743814266159
  23    1.6539405511758e-16
  24    -5.7065809699006e-16
  25    -3.8411540918623e-17
  26    -0.0020322250103922
  27     0.002691235154724
  28    2.5744751616685e-16
  29    4.7482058717914e-17
  30    8.9286152439506e-17
  31    2.0988931689841e-16
  32    -1.3878864743903e-17
  33    4.0266231159545e-17
  34    -4.0997973644018e-17
  35    1.6661131188993e-15
  36    2.2686467851536e-15
  37     -0.17818164813841
  38      0.23596241210724
  39    -2.9888089948308e-16
  40     -0.16140036149223
  41      0.21373928802758
  42    -1.4210153941994e-15
  43     -0.44119847424988
  44      0.58427036279944
  45    -9.5780708213778e-16
  46    -9.8148510734057e-18
  47    -0.0078002788702576
  48     0.010329754138908
  49    -1.1344522502283e-16
  50    -2.4317606568365e-17
  51    5.4542414603685e-16
  52    -0.0052665454901979
  53    0.0069743814266165
  54    2.8094377057547e-16
  55    -1.3952262997952e-16
  56    -1.3912060913364e-16
  57    0.0020322250103907
  58    -0.002691235154724
  59    -2.1916568365178e-16
  60    3.7954169495856e-17
  61    -7.0906922244859e-18
  62    -9.4860322170414e-17
 Sym= A
 Ene=               8
 Spin= Alpha
 Occup=    0.00000
   1    4.1450842766734e-16
   2    1.2583782800365e-15
   3    5.8175031860165e-15
   4    -9.6129853683991e-14
   5    -2.9683227106579e-13
   6     -0.23596241210724
   7     -0.17818164813842
   8    -3.8507472078433e-15
   9     -0.21373928802759
  10     -0.16140036149223
  11    -7.5579351816569e-14
  12     -0.58427036279944
  13     -0.44119847424988
  14    -1.4583552455747e-13
  15    5.6050631163382e-16
  16     0.010329754138908
  17    0.0078002788702585
  18    -9.9962218544911e-18
  19    -6.3365356819766e-17
  20    -2.8568629321875e-14
  21     0.006974381426612
  22    0.0052665454901997
  23    6.9564399366513e-16
  24    6.7465444044957e-17
  25    -1.9250802862286e-15
  26    0.0026912351547233
  27    0.0020322250103922
  28    -7.6908357781013e-17
  29    4.1088876849835e-17
  30    -1.7616792260849e-16
  31    -2.4670004228545e-17
  32    -3.3740628556196e-15
  33    -7.1756099535658e-15
  34    -1.7230422843774e-14
  35    2.1823512497443e-13
  36    1.8082229393405e-13
  37      0.23596241210724
  38      0.17818164813842
  39    5.6039986237966e-15
  40      0.21373928802758
  41      0.16140036149223
  42    -5.36668443146e-14
  43      0.58427036279945
  44      0.44119847424988
  45    -1.6735571774396e-13
  46    -2.8843798412792e-16
  47     0.010329754138908
  48     0.007800278870258
  49    -6.5515257143163e-17
  50    3.7300567601664e-16
  51    2.9069189793142e-14
  52    0.0069743814266115
  53    0.0052665454902011
  54    -3.484596421003e-16
  55    -4.394736539151e-16
  56    -2.384643418152e-15
  57    -0.0026912351547232
  58    -0.0020322250103921
  59    -1.1564318546825e-16
  60    8.2136399408258e-17
  61    6.5082457610797e-17
  62    -8.5433666936108e-17
 Sym= A
 Ene=               9
 Spin= Alpha
 Occup=    0.00000
   1    -0.034429631052285
   2    -0.068252950087715
   3    -0.096804538442739
   4        1.387161052694
   5      -1.2612988036298
   6    1.0718096522071e-14
   7    7.7526380678067e-15
   8    -0.080322873228436
   9    8.404575590359e-15
  10    1.8888172210181e-15
  11     -0.17253547028032
  12    2.7764520143062e-14
  13    2.3682865146768e-14
  14     -0.03046608722014
  15     0.010373753778467
  16    -9.8491779037231e-16
  17    -4.5244060202437e-16
  18    1.0162858767429e-16
  19    -1.596440909733e-17
  20    -0.013159087354671
  21    -1.0252013513684e-15
  22    2.0161885161876e-15
  23    -1.5383476503844e-16
  24    -1.0151679398719e-15
  25    0.0032186314401466
  26    -5.8546832159231e-16
  27    -1.9537420289928e-16
  28    -8.5021190124441e-17
  29    1.1425683162181e-18
  30    -9.6037300810979e-18
  31    -3.3081072341559e-18
  32    -0.034429631052093
  33    -0.068252950087279
  34    -0.096804538441897
  35       1.3871610526791
  36       -1.261298803672
  37    -1.0887150804284e-14
  38    -9.7625700832645e-15
  39     0.080322873228337
  40    -1.0208261242886e-14
  41    -1.115001007218e-14
  42      0.17253547028747
  43    -2.455232433894e-14
  44    -1.404674064965e-14
  45     0.030466087243152
  46     0.010373753778534
  47    9.6189833534692e-17
  48    -1.5725852592958e-16
  49    -1.5306882783057e-16
  50    -3.4158830072786e-17
  51      -0.0131590873579
  52    -3.6166030162118e-16
  53    -4.4125491999756e-15
  54    -2.1698388278453e-16
  55    9.2016156027596e-16
  56    -0.0032186314399042
  57    -2.244986487437e-16
  58    2.5413537672756e-17
  59    -3.0784968383778e-16
  60    -1.9005743504652e-17
  61    -5.7090752932038e-18
  62    -2.2238374287265e-17
 Sym= A
 Ene=              10
 Spin= Alpha
 Occup=    0.00000
   1    -0.032977709958015
   2    -0.072298662070541
   3      -0.1464571078144
   4       2.3488921360977
   5       4.6407949522513
   6    -1.387807061968e-14
   7    -1.0704003372424e-14
   8    -0.021789229669207
   9    -1.1325096224601e-14
  10    -4.8279846635513e-15
  11      0.94929822723837
  12    -3.4326261667403e-14
  13    -2.6259372824908e-14
  14       2.8767015856328
  15    -0.0087485046133229
  16    1.3122512618151e-15
  17    7.6530812118941e-16
  18    -4.5304784368498e-18
  19    -1.7805638987045e-17
  20      0.43091818581007
  21    1.5145602371757e-15
  22    -3.0506540264249e-15
  23    3.0750299417596e-17
  24    1.5438716078701e-15
  25     0.032669141579382
  26    7.5516436005602e-16
  27    3.3798643209926e-16
  28    -1.7395518071483e-16
  29    -8.1334175837503e-18
  30    1.2625515825281e-17
  31    4.2949221936853e-18
  32     0.032977709958233
  33     0.072298662070982
  34      0.14645710781492
  35       -2.348892136106
  36      -4.6407949522436
  37    1.4154879988155e-14
  38    1.2107849484397e-14
  39    -0.021789229669782
  40    1.3366667817372e-14
  41    1.2621362432596e-14
  42      0.94929822723717
  43    3.0808617510126e-14
  44    2.011944138763e-14
  45       2.8767015856332
  46    0.0087485046132857
  47    -2.1535411059128e-16
  48    2.8030948993745e-16
  49    4.6479044750779e-17
  50    4.4774932688571e-17
  51     -0.43091818581012
  52    4.5490171609986e-16
  53    6.5014692839846e-15
  54    5.3730364135247e-16
  55    -1.3444502937907e-15
  56     0.032669141579415
  57    3.7248467991423e-16
  58    -8.8499075943384e-17
  59    1.7727144522927e-16
  60    2.2221414797902e-17
  61    7.9665785451752e-18
  62    3.0891117996419e-17
 Sym= A
 Ene=              11
 Spin= Alpha
 Occup=    0.00000
   1    9.934604391813e-16
   2    3.6944109148703e-15
   3    -2.1317389864781e-14
   4    -2.6738209011741e-13
   5    -1.0021488868772e-14
   6     0.013231249113447
   7     -0.14694601642376
   8    -9.0471325176852e-14
   9     0.043825758031284
  10     -0.48672808623209
  11    -2.6001841321774e-13
  12    -0.065793763895443
  13      0.73070436714349
  14    1.0704509790463e-12
  15    -3.0142742862601e-14
  16    0.0012925560824167
  17    -0.014355104774077
  18    -1.6113924718532e-17
  19    1.3573088291792e-16
  20    7.1239881539838e-14
  21    0.0030090628406439
  22    -0.033418598184505
  23    -2.4308303421372e-17
  24    8.1060578578201e-16
  25    8.0190486920995e-15
  26    -2.4809241237727e-05
  27    0.00027553099024442
  28    -3.0458468329708e-17
  29    3.867953852591e-17
  30    -1.464655452997e-16
  31    -2.0622898487609e-16
  32    1.0639431549035e-15
  33    4.0559222930636e-15
  34    -2.0485211926493e-14
  35    -2.80884031446e-13
  36    -5.9322062711962e-14
  37     0.013231249113447
  38     -0.14694601642375
  39    9.0381522591324e-14
  40      0.04382575803128
  41      -0.4867280862321
  42    2.6802684760562e-13
  43    -0.065793763895428
  44      0.73070436714349
  45    -1.0460705897038e-12
  46    -3.0094244668521e-14
  47    -0.0012925560824167
  48     0.014355104774076
  49    9.475794832721e-18
  50    5.2061549998414e-17
  51    6.7582756759224e-14
  52    -0.0030090628406444
  53     0.033418598184504
  54    7.159940125686e-19
  55    1.6343825445914e-16
  56    -7.6405970661073e-15
  57    -2.4809241238025e-05
  58    0.00027553099024512
  59    2.5392840629405e-17
  60    2.2021420525592e-17
  61    -5.5252615449417e-17
  62    -5.0024544051551e-17
 Sym= A
 Ene=              12
 Spin= Alpha
 Occup=    0.00000
   1    -6.9393153852439e-18
   2    3.4500467229611e-18
   3    -3.5808566296293e-16
   4    9.1438423015403e-15
   5    1.6809185417447e-14
   6     -0.14694601642376
   7    -0.013231249113447
   8    1.3273915780181e-15
   9     -0.48672808623211
  10     -0.04382575803128
  11    7.932892251882e-15
  12      0.73070436714353
  13     0.065793763895436
  14    -4.5190368624873e-15
  15    3.2810306300814e-16
  16    -0.014355104774077
  17    -0.0012925560824169
  18    8.5891249828693e-17
  19    2.8341749252496e-17
  20    7.0065135056748e-16
  21    -0.033418598184505
  22    -0.0030090628406438
  23    -1.0374079647436e-15
  24    -5.1941036395385e-16
  25    3.6772776694244e-17
  26    0.00027553099024321
  27    2.4809241237951e-05
  28    -3.2474025968397e-17
  29    -1.4678302839688e-16
  30    -1.1797678492452e-16
  31    2.2714233786335e-17
  32    1.8637976871351e-16
  33    3.0136175199725e-16
  34    1.3227211517577e-15
  35    -9.3876590266645e-15
  36    -9.5669276544263e-15
  37     -0.14694601642375
  38    -0.013231249113447
  39    -1.1845121048225e-15
  40     -0.48672808623208
  41    -0.043825758031283
  42    4.4442682397768e-17
  43      0.73070436714345
  44     0.065793763895435
  45    2.143680643248e-14
  46    4.7631957024582e-16
  47     0.014355104774076
  48    0.0012925560824168
  49    1.8001466914083e-17
  50    1.339949411265e-16
  51    -3.077767814884e-15
  52     0.033418598184504
  53    0.0030090628406447
  54    3.8537538614286e-16
  55    -7.4844916617692e-16
  56    2.9079217042973e-16
  57    0.00027553099024603
  58    2.4809241237941e-05
  59    -2.8003364059601e-17
  60    1.5400690669132e-16
  61    1.5998438026972e-16
  62    -1.3854711838137e-17
 Sym= A
 Ene=              13
 Spin= Alpha
 Occup=    0.00000
   1    0.0010786351293597
   2    0.0043139541442327
   3    -0.026636533550338
   4     -0.33470204487436
   5    -0.051329356778744
   6    -1.0058737924413e-14
   7    1.1811957878549e-13
   8     -0.11379876293671
   9    -3.889612019856e-14
  10    3.9015478750872e-13
  11      -0.3318001344612
  12    6.8038553297259e-14
  13    -5.7517821124088e-13
  14       1.3250144620705
  15    -0.037658971195239
  16    -9.5213259088125e-16
  17    1.1343230880644e-14
  18    7.2293580620142e-17
  19    -3.2407873109981e-17
  20     0.087229550974551
  21    -1.9539869332665e-15
  22    2.4778251958825e-14
  23    -1.710284431305e-16
  24    7.832410525894e-16
  25    0.0098109211257054
  26    2.4136449509675e-16
  27    -1.1321222080802e-16
  28    -1.1213032140639e-16
  29    -3.4802279736006e-18
  30    5.3067828465735e-18
  31    1.7679338818367e-18
  32    0.0010786351293755
  33    0.0043139541442715
  34    -0.026636533550561
  35     -0.33470204487301
  36    -0.051329356780508
  37    -1.3857830721413e-14
  38    1.1691778822902e-13
  39      0.11379876293671
  40    -4.1125209780024e-14
  41    3.8947346092835e-13
  42      0.33180013446007
  43    5.1490358418782e-14
  44    -5.9210607767757e-13
  45      -1.3250144620694
  46    -0.037658971195218
  47    7.5827495865985e-16
  48    -1.1582450345901e-14
  49    1.3766601898319e-18
  50    1.1851550388209e-17
  51     0.087229550974914
  52     2.72047492951e-15
  53    -2.3197126820228e-14
  54    2.6668487663623e-16
  55    -6.4817413391732e-16
  56    -0.0098109211257432
  57    2.4869757679488e-16
  58    -1.9109500023577e-16
  59    4.5489731459021e-17
  60    8.6358663595326e-18
  61    3.2179979735959e-18
  62    1.1799923094215e-17
 Sym= A
 Ene=              14
 Spin= Alpha
 Occup=    0.00000
   1    1.8172406424422e-19
   2    -7.7025039078114e-18
   3    2.8967136704552e-16
   4    -1.1318239688696e-15
   5     1.34679689934e-14
   6      0.19736641136656
   7     -0.14833653191904
   8    1.760801375578e-16
   9      0.50276642631464
  10     -0.37786889637637
  11    6.4863390681632e-16
  12      -1.2710311776364
  13      0.95528086844212
  14    4.0769352134724e-15
  15    -3.9775344186999e-17
  16    0.0064399415585512
  17    -0.0048401275067135
  18    1.2588926282835e-16
  19    -2.2464111129812e-16
  20    -1.3157059947077e-16
  21    -0.078395110881689
  22     0.058920151544928
  23    -1.5161518868743e-15
  24    -3.0220790223494e-16
  25    7.8683619674153e-18
  26    -0.0043928009560716
  27    0.0033015387710719
  28    -2.5608099916394e-16
  29    6.8365460916222e-17
  30    -3.5597589150713e-16
  31    1.7456789573985e-17
  32    -4.0988155857724e-17
  33    -7.5142019044293e-17
  34    -1.6183077756452e-16
  35    2.499028025053e-15
  36    -1.4500148027691e-14
  37     -0.19736641136657
  38      0.14833653191905
  39    -5.2571223747307e-17
  40     -0.50276642631466
  41      0.37786889637637
  42    3.515970681438e-16
  43       1.2710311776364
  44     -0.95528086844212
  45    5.4731811406637e-15
  46    -3.1160393994381e-17
  47     0.006439941558551
  48    -0.0048401275067142
  49    7.0968060298628e-17
  50    2.5115123231077e-16
  51    -1.2320963788745e-16
  52    -0.078395110881686
  53      0.05892015154493
  54    1.2876782035479e-15
  55    -1.7213694574708e-15
  56    -1.341107013337e-17
  57    0.0043928009560725
  58    -0.0033015387710714
  59    2.1747955697844e-16
  60    -5.5433140327845e-17
  61    1.5454267988555e-16
  62    1.5055583803399e-16
 Sym= A
 Ene=              15
 Spin= Alpha
 Occup=    0.00000
   1    2.0693259442991e-17
   2    1.2851261910683e-16
   3    -1.2878687601071e-15
   4    8.1419097213185e-15
   5    -6.1446471364898e-14
   6     -0.14833653191904
   7     -0.19736641136657
   8    8.7027928047257e-18
   9     -0.37786889637635
  10     -0.50276642631466
  11    1.1218980033909e-15
  12      0.95528086844211
  13       1.2710311776364
  14    -2.903051688804e-14
  15    2.4949243533909e-16
  16    -0.0048401275067136
  17    -0.0064399415585505
  18    4.8073649417426e-17
  19    4.1721718514791e-17
  20    -3.3223258485068e-17
  21     0.058920151544939
  22     0.078395110881678
  23    -4.0264251260728e-16
  24    1.2253286486506e-15
  25    4.0635030144959e-17
  26    0.0033015387710739
  27    0.0043928009560695