[Molden Format]
made by pyscf v[2.12.1]
[Atoms] (AU)
N   1   7     0.00000000000000     0.00000000000000     0.00000000000000
N   2   7     0.00000000000000     0.00000000000000     2.07435236693507
[GTO]
1 0
 s    6 1.00
              4173.511  0.0018347994430301
              627.4579   0.013994995751693
              142.9021   0.068586979179805
              40.23433    0.23224092950117
              12.82021    0.46906985760962
              4.390437    0.36045489058067
 s    3 1.00
             11.626358   -0.11496102288211
               2.71628   -0.16911803366165
              0.772218     1.1458522280731
 s    1 1.00
             0.2120313                   1
 p    3 1.00
             11.626358   0.067580023248036
               2.71628    0.32390711142648
              0.772218    0.74089525487354
 p    1 1.00
             0.2120313                   1

2 0
 s    6 1.00
              4173.511  0.0018347994430301
              627.4579   0.013994995751693
              142.9021   0.068586979179805
              40.23433    0.23224092950117
              12.82021    0.46906985760962
              4.390437    0.36045489058067
 s    3 1.00
             11.626358   -0.11496102288211
               2.71628   -0.16911803366165
              0.772218     1.1458522280731
 s    1 1.00
             0.2120313                   1
 p    3 1.00
             11.626358   0.067580023248036
               2.71628    0.32390711142648
              0.772218    0.74089525487354
 p    1 1.00
             0.2120313                   1

[5d]
[7f]
[9g]

[MO]
 Sym= A
 Ene=               0
 Spin= Alpha
 Occup=    1.00000
   1      0.70407855909372
   2     0.014769386081969
   3    -0.0027357406711059
   4    -1.089913745528e-16
   5    1.4675225301774e-17
   6    0.0018795367251171
   7    -1.4186934553059e-18
   8    -2.9232612409773e-18
   9    -0.0012379598477212
  10      0.70407855909175
  11     0.014769386081922
  12    -0.0027357406710624
  13    -4.9600275007662e-18
  14    -5.7901681149705e-18
  15    -0.0018795367251094
  16    3.8066234508398e-19
  17    3.6587518269133e-19
  18    0.0012379598477031
 Sym= A
 Ene=               1
 Spin= Alpha
 Occup=    1.00000
   1     -0.70458423082438
   2    -0.016610991729766
   3      0.01544026572513
   4    -1.0707912541859e-16
   5    1.6643821777192e-17
   6    -0.0028060369391857
   7    -2.5022557235952e-18
   8    -3.9110511447398e-18
   9    0.0063856887913791
  10      0.70458423082635
  11     0.016610991729808
  12    -0.015440265725138
  13    -5.0730304098011e-18
  14    -5.843627240457e-18
  15    -0.0028060369391909
  16    7.247597923087e-19
  17    6.8557277761482e-19
  18    0.0063856887913826
 Sym= A
 Ene=               2
 Spin= Alpha
 Occup=    1.00000
   1     -0.15712263413307
   2      0.36020626076214
   3      0.17239634856615
   4    2.5233964452095e-16
   5    1.6105897100169e-16
   6      0.24256872251716
   7    8.6046191745844e-17
   8    7.1175058656238e-17
   9     0.018946200318848
  10     -0.15712263413307
  11      0.36020626076214
  12      0.17239634856618
  13    7.4251196215069e-17
  14    5.2009457916072e-17
  15     -0.24256872251716
  16    1.5883550331998e-17
  17    1.5438524730401e-17
  18    -0.018946200318865
 Sym= A
 Ene=               3
 Spin= Alpha
 Occup=    1.00000
   1     -0.14687395712875
   2      0.34010966565427
   3      0.56353794285229
   4    -7.9944604301106e-16
   5    -1.0135020106439e-15
   6      -0.2011390533469
   7    -4.0170242925271e-16
   8    -4.9683379447572e-16
   9    -0.032460550952037
  10      0.14687395712875
  11     -0.34010966565426
  12     -0.56353794285228
  13    -5.1108811639363e-16
  14    -8.0084251602391e-16
  15     -0.20113905334687
  16    -2.5680191228304e-16
  17    -4.1062563290266e-16
  18    -0.032460550952034
 Sym= A
 Ene=               4
 Spin= Alpha
 Occup=    1.00000
   1     -0.05840156913867
   2     0.084697661222659
   3      0.33911833417349
   4    -1.1888744215574e-14
   5    -8.3091009842216e-15
   6     -0.46751485760541
   7    -6.8168424887953e-15
   8    -5.1114282381722e-15
   9      -0.1788380366218
  10    -0.058401569138677
  11     0.084697661222659
  12      0.33911833417366
  13    -1.1834359890029e-14
  14    -8.3056861641218e-15
  15      0.46751485760541
  16    -6.7423428399053e-15
  17    -4.752488364157e-15
  18      0.17883803662172
 Sym= A
 Ene=               5
 Spin= Alpha
 Occup=    1.00000
   1    -1.0119092081801e-15
   2    1.8475142876768e-15
   3    4.0231388273841e-15
   4    -0.079160440305345
   5      0.43600488118617
   6    -6.7068292204056e-15
   7    -0.045369369774043
   8      0.24988828512728
   9    -3.3259115818644e-15
  10    -5.8903647503217e-16
  11    3.3801520056499e-16
  12    5.2406869313849e-15
  13    -0.079160440305343
  14      0.43600488118617
  15    6.0882629562191e-15
  16    -0.045369369774042
  17      0.24988828512727
  18    1.5708511090214e-15
 Sym= A
 Ene=               6
 Spin= Alpha
 Occup=    1.00000
   1    -1.9183678106201e-15
   2    2.9743397675607e-15
   3    9.5215207909014e-15
   4      0.43600488118617
   5     0.079160440305345
   6    -1.4503097374865e-14
   7      0.24988828512728
   8     0.045369369774042
   9    -6.1095339497063e-15
  10    -1.3894603291658e-15
  11    1.3211172745244e-15
  12    1.0847682617164e-14
  13      0.43600488118616
  14     0.079160440305344
  15    1.3437904632181e-14
  16      0.24988828512728
  17     0.045369369774042
  18    4.4104013339119e-15
 Sym= A
 Ene=               7
 Spin= Alpha
 Occup=    0.00000
   1    -2.6248018897552e-17
   2    -1.3212731817891e-16
   3    2.9539361920382e-15
   4     0.018740232334437
   5     -0.44698981842236
   6    5.1773500164875e-17
   7     0.028037553635312
   8     -0.66874843303975
   9    1.7836055489651e-15
  10    9.0038219462785e-17
  11    4.5763138275951e-16
  12    -3.2668635585524e-15
  13    -0.018740232334437
  14      0.44698981842236
  15    -1.2841640101658e-17
  16    -0.028037553635313
  17      0.66874843303975
  18    1.7672758285244e-15
 Sym= A
 Ene=               8
 Spin= Alpha
 Occup=    0.00000
   1    -1.0178655431829e-17
   2    6.7218191440779e-17
   3    1.522129228098e-15
   4     -0.44698981842236
   5    -0.018740232334437
   6    2.1970350098825e-16
   7     -0.66874843303975
   8    -0.028037553635312
   9    9.8757570086066e-16
  10    -3.0141949347493e-17
  11     4.57568003148e-16
  12    -1.8203185299538e-15
  13      0.44698981842236
  14     0.018740232334437
  15    1.0335416522183e-17
  16      0.66874843303975
  17     0.028037553635312
  18    1.1322693553114e-15
 Sym= A
 Ene=               9
 Spin= Alpha
 Occup=    0.00000
   1      0.10096240468312
   2     -0.19886006804931
   3      -4.0879820216904
   4    -4.3236344957049e-16
   5    3.2810472401361e-16
   6    -0.083806624241505
   7    -6.6840929321558e-17
   8    -9.4716093286217e-16
   9      -2.6672345988526
  10     -0.10096240468311
  11      0.19886006804931
  12       4.0879820216905
  13    -3.7063114268756e-17
  14    2.0230143091583e-16
  15    -0.083806624241589
  16    2.0516692544932e-16
  17    2.3752044766839e-16
  18      -2.6672345988524
 Sym= A
 Ene=              10
 Spin= Alpha
 Occup=    0.00000
   1     0.020540371941033
   2      0.39139864205225
   3    -0.044549597420118
   4    -1.2800891268082e-15
   5    1.0165980464435e-15
   6      0.46106425707698
   7    1.4937509739575e-15
   8    -1.1506379623363e-15
   9     -0.99473705136217
  10     0.020540371941048
  11      0.39139864205214
  12    -0.044549597420352
  13    -8.9351901664669e-16
  14    5.9421107872473e-16
  15     -0.46106425707697
  16    6.1015542165868e-16
  17    -3.629218416431e-16
  18       0.9947370513624
 Sym= A
 Ene=              11
 Spin= Alpha
 Occup=    0.00000
   1    1.4959556295084e-16
   2    -7.642432234351e-16
   3    -9.5604794240678e-16
   4      0.67515426778479
   5    -0.026859198900046
   6    9.4236862532624e-16
   7      -0.6210276997519
   8     0.024705918789202
   9    -3.2630738877666e-15
  10    2.8492730780883e-17
  11    -7.993254744485e-16
  12    3.2804655767859e-15
  13      0.67515426778477
  14    -0.026859198900045
  15    -1.4133347206027e-15
  16     -0.62102769975185
  17       0.0247059187892
  18    7.1404158765036e-16
 Sym= A
 Ene=              12
 Spin= Alpha
 Occup=    0.00000
   1    -5.6673060561872e-17
   2    1.0133292581263e-16
   3    -2.7528310735514e-16
   4     0.026859198900046
   5      0.67515426778479
   6    -1.1283232214467e-15
   7    -0.024705918789202
   8      -0.6210276997519
   9    1.6453552984823e-15
  10    -3.0443632774723e-17
  11    -8.7779178754354e-16
  12    3.8694066523498e-16
  13     0.026859198900045
  14      0.67515426778476
  15    1.1077068557167e-16
  16      -0.0247059187892
  17     -0.62102769975185
  18    -6.1122780831915e-16
 Sym= A
 Ene=              13
 Spin= Alpha
 Occup=    0.00000
   1    -0.048624333094429
   2       1.0317689922717
   3      -0.9055750915138
   4    -6.1956230181358e-16
   5    -1.141836135462e-16
   6     -0.26542679829641
   7    1.9599351511447e-15
   8    3.0859209264494e-16
   9      0.17572180448004
  10    -0.048624333094436
  11       1.0317689922718
  12     -0.90557509151376
  13    2.8352476546364e-15
  14    -3.3604034589084e-17
  15      0.26542679829639
  16    -3.8495975420576e-15
  17    -1.3239311790932e-16
  18      -0.1757218044801
 Sym= A
 Ene=              14
 Spin= Alpha
 Occup=    0.00000
   1    -9.2558472604097e-17
   2    3.0483460652688e-15
   3    -4.6330935076734e-15
   4      0.73595449081154
   5    -0.012351784399654
   6    -8.1737828306765e-16
   7      -1.1480281302343
   8     0.019267761969568
   9    -1.0167231118486e-15
  10    -1.103151535185e-16
  11    2.409744593455e-15
  12    -3.0476301464629e-17
  13     -0.73595449081157
  14     0.012351784399654
  15    1.8169535605309e-16
  16       1.1480281302343
  17    -0.019267761969568
  18    -1.1628581061897e-15
 Sym= A
 Ene=              15
 Spin= Alpha
 Occup=    0.00000
   1    -2.6476594944091e-17
   2    5.5697318110225e-16
   3    -1.394176438236e-15
   4     0.012351784399654
   5      0.73595449081154
   6    -8.2465231475841e-16
   7    -0.019267761969568
   8      -1.1480281302343
   9    3.6253035780479e-16
  10    -2.1611359576695e-17
  11    -5.5249785503523e-16
  12    1.1978676796102e-15
  13    -0.012351784399654
  14     -0.73595449081157
  15    -3.5361519448874e-16
  16     0.019267761969568
  17       1.1480281302343
  18    -3.9040709857897e-16
 Sym= A
 Ene=              16
 Spin= Alpha
 Occup=    0.00000
   1    -0.032521184974343
   2     -0.37161926796896
   3       2.1034008361815
   4    5.8595174278773e-16
   5    1.1512403359219e-15
   6      0.87565535036227
   7    -8.1391659375977e-16
   8    -1.6019674227226e-15
   9      0.47432591279808
  10     0.032521184974343
  11      0.37161926796897
  12      -2.1034008361815
  13    -3.7409257229769e-17
  14    -6.9092095081946e-17
  15      0.87565535036226
  16    3.0447525472727e-16
  17    4.3819297503165e-16
  18      0.47432591279811
 Sym= A
 Ene=              17
 Spin= Alpha
 Occup=    0.00000
   1     0.033835616613386
   2      -1.3680402445599
   3       5.5184746299867
   4    2.6612402337781e-16
   5    2.4548795750527e-16
   6     -0.46964374737848
   7    -1.4519132049932e-16
   8    -6.7790378441882e-17
   9       2.5561291008079
  10    -0.033835616613385
  11       1.3680402445599
  12      -5.5184746299867
  13    -9.2590885670304e-17
  14    -4.6180693392956e-17
  15      -0.4696437473785
  16    9.1586688562993e-17
  17    1.2329853042361e-17
  18       2.5561291008079
