[Molden Format]
made by pyscf v[2.12.1]
[Atoms] (AU)
N   1   7     0.00000000000000     0.00000000000000     0.00000000000000
N   2   7     0.00000000000000     0.00000000000000     2.07435236693507
[GTO]
1 0
 s    3 1.00
               242.766   0.059865700507811
               36.4851    0.35295500299394
               7.81449    0.70651300599299
 s    2 1.00
               5.42522   -0.41330007742987
               1.14915     1.2244172668507
 s    1 1.00
              0.283205                   1
 p    2 1.00
               5.42522     0.2379720162216
               1.14915    0.85895305855138
 p    1 1.00
              0.283205                   1

2 0
 s    3 1.00
               242.766   0.059865700507811
               36.4851    0.35295500299394
               7.81449    0.70651300599299
 s    2 1.00
               5.42522   -0.41330007742987
               1.14915     1.2244172668507
 s    1 1.00
              0.283205                   1
 p    2 1.00
               5.42522     0.2379720162216
               1.14915    0.85895305855138
 p    1 1.00
              0.283205                   1

[5d]
[7f]
[9g]

[MO]
 Sym= A
 Ene=               0
 Spin= Alpha
 Occup=    1.00000
   1      0.69644473193809
   2     0.063510767657942
   3    -0.015729062763634
   4    -3.8293457051576e-17
   5    -8.2999501289679e-17
   6     0.001510115644644
   7    -7.4086998815809e-18
   8    -2.1509557477191e-18
   9    -0.0023354308084959
  10      0.69644473192471
  11     0.063510767656591
  12    -0.015729062762475
  13    -2.0630705943074e-18
  14    2.4638296909466e-18
  15    -0.0015101156445428
  16    4.2196087913032e-19
  17    1.0985895358024e-18
  18    0.0023354308080157
 Sym= A
 Ene=               1
 Spin= Alpha
 Occup=    1.00000
   1     -0.69691311520123
   2    -0.070353352104604
   3     0.060277097230075
   4    -3.039469919621e-17
   5    -8.1673882314102e-17
   6    -0.0052619785309627
   7    -7.9922874616552e-18
   8    -1.1345239157317e-18
   9     0.024959216667236
  10      0.69691311521459
  11     0.070353352105823
  12    -0.060277097230377
  13    -2.2930864433391e-18
  14    2.5488481383269e-18
  15    -0.0052619785309917
  16    4.4348050265783e-19
  17    8.2120535553944e-19
  18      0.02495921666728
 Sym= A
 Ene=               2
 Spin= Alpha
 Occup=    1.00000
   1     -0.16786635157964
   2      0.19893388687075
   3      0.32205928990652
   4    2.8666601459086e-17
   5    1.0155348648368e-16
   6      0.21837039202967
   7    3.4436408002132e-17
   8    6.4658637611263e-17
   9     0.072932163340418
  10     -0.16786635157963
  11      0.19893388687075
  12       0.3220592899065
  13    1.1592103317171e-17
  14    5.7805768801808e-18
  15     -0.21837039202967
  16    8.7550122207286e-18
  17    2.4901691171488e-18
  18    -0.072932163340411
 Sym= A
 Ene=               3
 Spin= Alpha
 Occup=    1.00000
   1     -0.16245545944787
   2      0.16084222983028
   3      0.70057964938888
   4    -3.3554247001647e-16
   5    -3.4277518843262e-17
   6     -0.16703275820759
   7    -3.031246569243e-16
   8    -1.428817384476e-16
   9    -0.072533163097237
  10      0.16245545944787
  11     -0.16084222983028
  12     -0.70057964938887
  13    -2.777022687176e-16
  14    -8.5143589079195e-17
  15     -0.16703275820758
  16    -2.5676096510237e-16
  17    -8.3624594182104e-17
  18    -0.072533163097224
 Sym= A
 Ene=               4
 Spin= Alpha
 Occup=    1.00000
   1    -0.069160189386187
   2     0.024441988168406
   3      0.39582187774429
   4    -2.6318581934462e-14
   5    -1.4484934570914e-14
   6     -0.40226524372506
   7    -2.5646020246886e-14
   8    -1.4069276148931e-14
   9     -0.28020070657675
  10    -0.069160189386192
  11     0.024441988168418
  12      0.39582187774426
  13    -2.6257930114555e-14
  14    -1.4223966724608e-14
  15      0.40226524372506
  16    -2.5534552674105e-14
  17    -1.3805576394626e-14
  18      0.28020070657679
 Sym= A
 Ene=               5
 Spin= Alpha
 Occup=    1.00000
   1    -5.0697338625656e-15
   2     1.89761645409e-15
   3    2.8847236913089e-14
   4      0.35714793797793
   5    -0.017210170559439
   6    -2.8749525635695e-14
   7       0.3479309672664
   8     -0.01676602509164
   9    -2.0118247942803e-14
  10    -4.7572767299166e-15
  11    1.4666486521562e-15
  12    2.7850801890161e-14
  13      0.35714793797792
  14    -0.017210170559439
  15    2.8577573949082e-14
  16       0.3479309672664
  17     -0.01676602509164
  18    2.0080230039333e-14
 Sym= A
 Ene=               6
 Spin= Alpha
 Occup=    1.00000
   1    -3.0277450038274e-15
   2    1.1155838227055e-15
   3    1.7179787538077e-14
   4     0.017210170559439
   5      0.35714793797792
   6    -1.7465442910049e-14
   7     0.016766025091639
   8       0.3479309672664
   9    -1.2525798447527e-14
  10    -2.8896788559425e-15
  11    9.9397952511477e-16
  12    1.7235348254656e-14
  13      0.01721017055944
  14      0.35714793797792
  15    1.7435712863901e-14
  16     0.016766025091641
  17       0.3479309672664
  18    1.209932376776e-14
 Sym= A
 Ene=               7
 Spin= Alpha
 Occup=    0.00000
   1    1.2780686321337e-17
   2    -3.0094095355829e-17
   3    -3.178807648697e-16
   4     -0.37206722090495
   5    -0.026585010019706
   6    -3.6215336188481e-17
   7      -0.6722330870856
   8    -0.048032512276361
   9    -1.7770558002291e-17
  10    -3.2280335918675e-17
  11    -2.3869373481766e-17
  12    2.469301443887e-16
  13      0.37206722090494
  14     0.026585010019705
  15    8.6777553589014e-17
  16       0.6722330870856
  17      0.04803251227636
  18    -3.4695949980599e-16
 Sym= A
 Ene=               8
 Spin= Alpha
 Occup=    0.00000
   1    -3.4614775038791e-17
   2    1.1460831928421e-17
   3    6.5182469467539e-16
   4     0.026585010019705
   5     -0.37206722090494
   6    4.6293642804271e-17
   7      0.04803251227636
   8      -0.6722330870856
   9    7.5881605653705e-16
  10    9.0853540528586e-17
  11    4.4172321146345e-17
  12    -9.0179206443007e-16
  13    -0.026585010019706
  14      0.37206722090494
  15    4.6285214531519e-18
  16    -0.048032512276361
  17       0.6722330870856
  18    3.5367611299595e-16
 Sym= A
 Ene=               9
 Spin= Alpha
 Occup=    0.00000
   1       0.1389288553864
   2     -0.06191766073952
   3       -2.895223182175
   4    -2.6026850706191e-16
   5    1.2948192854154e-16
   6     -0.19269513119567
   7    3.0557635740815e-16
   8    -4.5152728101093e-16
   9      -2.1361589444462
  10     -0.13892885538641
  11     0.061917660739515
  12        2.895223182175
  13    -8.9858087151955e-17
  14    7.4719617171276e-17
  15     -0.19269513119566
  16    -7.027103222957e-18
  17    1.9191396908801e-16
  18      -2.1361589444462
 Sym= A
 Ene=              10
 Spin= Alpha
 Occup=    0.00000
   1    -0.036262121282918
   2     -0.14173656426772
   3     -0.12939519469012
   4    -2.308068192589e-16
   5    -5.7336176444639e-17
   6     -0.63670367804312
   7    4.1027888601609e-16
   8    3.7102850999175e-16
   9      0.89777769432637
  10    -0.036262121282915
  11     -0.14173656426774
  12     -0.12939519469014
  13    4.7994547290363e-17
  14    -5.8613207250663e-17
  15      0.63670367804311
  16    -2.0681067012453e-16
  17    -1.016182137785e-16
  18     -0.89777769432633
 Sym= A
 Ene=              11
 Spin= Alpha
 Occup=    0.00000
   1    1.0510084014726e-17
   2    -2.3329223456894e-16
   3    -1.0029558371431e-15
   4      0.70296411334161
   5      0.23013789929972
   6    5.2168255846253e-16
   7     -0.55792254195608
   8     -0.18265387854208
   9    -1.0751075122194e-15
  10    1.8168193213938e-17
  11    -1.602136407511e-16
  12    1.1851013088554e-15
  13       0.7029641133416
  14      0.23013789929971
  15    8.1808088884507e-16
  16     -0.55792254195607
  17     -0.18265387854206
  18    -1.4645192939175e-15
 Sym= A
 Ene=              12
 Spin= Alpha
 Occup=    0.00000
   1    -3.9948061766522e-17
   2    1.2752003796863e-16
   3    6.789069055966e-16
   4     -0.23013789929972
   5      0.70296411334162
   6    -3.0447046714518e-16
   7      0.18265387854207
   8      -0.5579225419561
   9    9.3995709133826e-16
  10    -5.2395457366748e-17
  11    -1.7780540285385e-16
  12    -7.6858721067345e-16
  13     -0.23013789929972
  14      0.70296411334159
  15    -1.2951213449241e-16
  16      0.18265387854206
  17     -0.55792254195605
  18     6.25179470452e-16
 Sym= A
 Ene=              13
 Spin= Alpha
 Occup=    0.00000
   1    -8.9718784114087e-18
   2    -3.4520885969955e-16
   3    -1.4546338841463e-15
   4      0.74493291623112
   5      -0.1247987150903
   6    1.6322601800787e-15
   7     -0.98569289205628
   8      0.16513326733451
   9    -2.0837374115386e-15
  10    4.0318070990153e-18
  11    9.5587586366609e-17
  12    1.571985295884e-15
  13     -0.74493291623114
  14      0.12479871509031
  15    1.8760894650962e-15
  16      0.98569289205629
  17     -0.16513326733451
  18    -2.464030696181e-15
 Sym= A
 Ene=              14
 Spin= Alpha
 Occup=    0.00000
   1    -2.1613901953401e-17
   2    1.6077037970259e-17
   3    2.5687349215229e-16
   4       0.1247987150903
   5      0.74493291623111
   6    -1.3727929971805e-16
   7     -0.16513326733451
   8     -0.98569289205627
   9    3.9082938290451e-16
  10    6.2619568443783e-17
  11    -2.2513266502416e-16
  12    -1.6309547388496e-16
  13     -0.12479871509031
  14     -0.74493291623115
  15    5.4940451727568e-17
  16      0.16513326733451
  17       0.9856928920563
  18    1.6205760084603e-16
 Sym= A
 Ene=              15
 Spin= Alpha
 Occup=    0.00000
   1    -0.016489477181682
   2     -0.10210309722401
   3     -0.37537080740274
   4    -2.311048125991e-15
   5    3.3365315394483e-16
   6      0.86378323619561
   7    2.6817920262479e-15
   8    -3.6019499588064e-16
   9     -0.82993192055901
  10     0.016489477181682
  11        0.102103097224
  12      0.37537080740274
  13    8.0717076461296e-16
  14    -2.8283345847354e-16
  15      0.86378323619562
  16    -1.5182869175686e-15
  17    3.4322172447707e-16
  18     -0.82993192055903
 Sym= A
 Ene=              16
 Spin= Alpha
 Occup=    0.00000
   1    -0.055577386149375
   2       1.0908558861693
   3     -0.80085383602636
   4    2.2456503649245e-16
   5    3.501752592261e-17
   6    -0.082769171249971
   7    -2.2701147657524e-16
   8    -1.4218758377339e-17
   9    -0.036158573031617
  10    -0.055577386149376
  11       1.0908558861693
  12     -0.80085383602634
  13    5.5019809431965e-17
  14    -4.4985739871691e-17
  15     0.082769171249974
  16    -2.5769757212118e-18
  17    1.2708295183553e-17
  18     0.036158573031606
 Sym= A
 Ene=              17
 Spin= Alpha
 Occup=    0.00000
   1    -0.019727653955235
   2       1.2866564895188
   3      -3.6054909867634
   4    -1.9200507043677e-17
   5    -1.0267770554884e-16
   6      0.14735677730203
   7    3.1146608987348e-17
   8    8.3363561914044e-17
   9      -1.7147472621765
  10     0.019727653955234
  11      -1.2866564895188
  12       3.6054909867634
  13    -3.4680953713106e-17
  14    1.4898944493444e-17
  15      0.14735677730203
  16    2.6778446705866e-17
  17    -2.2479200692016e-17
  18      -1.7147472621765
