[Molden Format]
made by pyscf v[2.12.1]
[Atoms] (AU)
C   1   6    -3.97679294681143     6.62764935380071    -0.71262498123150
C   2   6    -1.18808555437783     6.39581983153780    -0.80269934387673
C   3   6    -0.54836186066196     3.92140507410043    -0.27423138601851
C   4   6    -2.71113337912976     2.51491820232824     0.15545113867807
C   5   6    -4.82026445463393     4.03376403206959    -0.08108947081337
H   6   1    -5.15115417623699     8.33316233012659    -1.03986545271540
H   7   1     0.14012111343776     7.89496243184138    -1.21071067834941
H   8   1     1.36550060185649     3.20561801414470    -0.20987090469546
H   9   1    -2.76066366777244     0.52234562315985     0.60987357985223
H   10   1    -6.75275167989088     3.41247726231544     0.15869542048872
[GTO]
1 0
 s    6 1.00
             3047.5249  0.0018347001629433
             457.36951    0.01403730124668
             103.94869   0.068842606114048
             29.210155    0.23218442062076
              9.286663    0.46794134155879
              3.163927    0.36231203217765
 s    3 1.00
             7.8682724   -0.11933240861517
             1.8812885   -0.16085421161283
             0.5442493     1.1434564825515
 s    1 1.00
             0.1687144                   1
 p    3 1.00
             7.8682724   0.068999095584993
             1.8812885    0.31642397975315
             0.5442493    0.74430825237435
 p    1 1.00
             0.1687144                   1

2 0
 s    6 1.00
             3047.5249  0.0018347001629433
             457.36951    0.01403730124668
             103.94869   0.068842606114048
             29.210155    0.23218442062076
              9.286663    0.46794134155879
              3.163927    0.36231203217765
 s    3 1.00
             7.8682724   -0.11933240861517
             1.8812885   -0.16085421161283
             0.5442493     1.1434564825515
 s    1 1.00
             0.1687144                   1
 p    3 1.00
             7.8682724   0.068999095584993
             1.8812885    0.31642397975315
             0.5442493    0.74430825237435
 p    1 1.00
             0.1687144                   1

3 0
 s    6 1.00
             3047.5249  0.0018347001629433
             457.36951    0.01403730124668
             103.94869   0.068842606114048
             29.210155    0.23218442062076
              9.286663    0.46794134155879
              3.163927    0.36231203217765
 s    3 1.00
             7.8682724   -0.11933240861517
             1.8812885   -0.16085421161283
             0.5442493     1.1434564825515
 s    1 1.00
             0.1687144                   1
 p    3 1.00
             7.8682724   0.068999095584993
             1.8812885    0.31642397975315
             0.5442493    0.74430825237435
 p    1 1.00
             0.1687144                   1

4 0
 s    6 1.00
             3047.5249  0.0018347001629433
             457.36951    0.01403730124668
             103.94869   0.068842606114048
             29.210155    0.23218442062076
              9.286663    0.46794134155879
              3.163927    0.36231203217765
 s    3 1.00
             7.8682724   -0.11933240861517
             1.8812885   -0.16085421161283
             0.5442493     1.1434564825515
 s    1 1.00
             0.1687144                   1
 p    3 1.00
             7.8682724   0.068999095584993
             1.8812885    0.31642397975315
             0.5442493    0.74430825237435
 p    1 1.00
             0.1687144                   1

5 0
 s    6 1.00
             3047.5249  0.0018347001629433
             457.36951    0.01403730124668
             103.94869   0.068842606114048
             29.210155    0.23218442062076
              9.286663    0.46794134155879
              3.163927    0.36231203217765
 s    3 1.00
             7.8682724   -0.11933240861517
             1.8812885   -0.16085421161283
             0.5442493     1.1434564825515
 s    1 1.00
             0.1687144                   1
 p    3 1.00
             7.8682724   0.068999095584993
             1.8812885    0.31642397975315
             0.5442493    0.74430825237435
 p    1 1.00
             0.1687144                   1

6 0
 s    3 1.00
             18.731137    0.03349459952309
             2.8253937    0.23472694665786
             0.6401217    0.81375731841339
 s    1 1.00
             0.1612778                   1

7 0
 s    3 1.00
             18.731137    0.03349459952309
             2.8253937    0.23472694665786
             0.6401217    0.81375731841339
 s    1 1.00
             0.1612778                   1

8 0
 s    3 1.00
             18.731137    0.03349459952309
             2.8253937    0.23472694665786
             0.6401217    0.81375731841339
 s    1 1.00
             0.1612778                   1

9 0
 s    3 1.00
             18.731137    0.03349459952309
             2.8253937    0.23472694665786
             0.6401217    0.81375731841339
 s    1 1.00
             0.1612778                   1

10 0
 s    3 1.00
             18.731137    0.03349459952309
             2.8253937    0.23472694665786
             0.6401217    0.81375731841339
 s    1 1.00
             0.1612778                   1

[5d]
[7f]
[9g]

[MO]
 Sym= A
 Ene=    -10.99445125
 Spin= Alpha
 Occup=    1.00000
   1      0.99203489699508
   2     0.024069416814291
   3    -0.016051583397816
   4    8.684754706555e-06
   5    -1.2788817298242e-05
   6    2.2200312535993e-06
   7    -0.0019257544037417
   8    0.0027978529448405
   9    -0.00053589438291327
  10      0.06465826163775
  11    0.00080392436770206
  12    0.0049067497981082
  13    0.00017631759002077
  14    4.4981905308051e-05
  15    -1.923237670885e-05
  16    -0.002865115404655
  17    -0.00068124905113409
  18    0.00030106061297119
  19    0.0015127803113006
  20    -7.7415755628069e-05
  21    -0.00055868765764906
  22    -1.6011364374634e-05
  23    -0.00011925819267253
  24    2.7879917602503e-05
  25    0.00034236838196962
  26    -0.00011510408906865
  27    8.5645623798433e-06
  28    0.0015108371604377
  29    -7.7418177754746e-05
  30    -0.00055917940378539
  31    0.00011951915217671
  32    -3.1111435228709e-05
  33    9.5174227838391e-07
  34    -2.1017862019168e-05
  35    -0.00035170845700544
  36    8.082469596418e-05
  37     0.064612796813139
  38    0.00080276878037238
  39    0.0049078756997963
  40    -0.00011006577331191
  41    -0.00014125864589548
  42    3.7664136465118e-05
  43    0.0017412936423272
  44    0.0023142129033351
  45    -0.00061406704862204
  46    -0.00045231407440542
  47    0.0015229148878686
  48    -0.00013042246061096
  49    0.0006075470389503
  50    -3.9749545802995e-06
  51    2.6049820569264e-05
  52    -3.9661106317949e-06
  53    2.6030343735502e-05
  54    -0.00013039461960693
  55    0.00060749004788051
 Sym= A
 Ene=    -10.98864218
 Spin= Alpha
 Occup=    1.00000
   1    -0.002847395730246
   2    -0.00010315398062791
   3    0.00030329701153645
   4    -7.0135226217818e-05
   5    -3.7238509009923e-05
   6    1.2034832187448e-05
   7    0.0018545995683131
   8    0.0010574850830605
   9    -0.0003347492983198
  10      0.72462439752477
  11     0.018035011963707
  12    -0.012524605836293
  13    -2.6175133619231e-05
  14    -6.065069392068e-05
  15    1.510611999557e-05
  16    0.0013061261000988
  17    0.0021130276598834
  18    -0.00054605275375854
  19     0.037688566143088
  20    0.00034287465470935
  21     0.005296485364023
  22    3.9013648901058e-05
  23    -0.00021549053526475
  24    4.687697411523e-05
  25    -0.0016905059489357
  26      0.00212101989783
  27    -0.00039454798529578
  28    -0.035294685576221
  29    -0.00032735521037974
  30    -0.0050467502935419
  31    -0.00019054173772542
  32    0.00010873834626674
  33    -1.4910495394321e-05
  34    0.0012887145959783
  35    -0.0022158179886957
  36    0.00043661213157708
  37     -0.68164919330241
  38    -0.016965678391619
  39     0.011678642610774
  40    -6.1227276302696e-05
  41    -8.656739838301e-06
  42    5.0865453586582e-06
  43    0.0023239671023783
  44    0.00030606147176156
  45    -0.00018838246114934
  46    -2.8709763559283e-06
  47    1.624506128524e-05
  48    -0.00031803506500584
  49    0.0011691346371307
  50    -8.8370076089866e-05
  51    0.00043097986108152
  52    8.4116760736515e-05
  53    -0.00040005252437121
  54    0.00030076547992066
  55    -0.0011005583096721
 Sym= A
 Ene=    -10.98856563
 Spin= Alpha
 Occup=    1.00000
   1    -0.091709311997081
   2    -0.0033353744175537
   3    0.0098653092543064
   4    -0.00012733186326164
   5    0.00018925151790814
   6    -3.641842245207e-05
   7    0.0022423892631236
   8    -0.0033724866158157
   9    0.00065034495988163
  10       0.6784322237815
  11     0.016880980938885
  12    -0.013400241873038
  13    8.9470017336896e-05
  14    -0.00014338617481225
  15    2.7949407248355e-05
  16    0.0020484127367049
  17    0.0022434716132437
  18    -0.00061361278086611
  19     0.037940085859033
  20    0.00024417946520436
  21    0.0039048903468671
  22    0.00013412705686859
  23    -3.9475871947491e-05
  24    2.086211545565e-06
  25    -0.0011688566090684
  26    0.0018537496206347
  27    -0.00036061036868013
  28     0.040182564079851
  29    0.00026483485979659
  30    0.0042219926517467
  31    -1.9538117221214e-06
  32    -0.0001424993122346
  33    3.2416598583193e-05
  34    -0.0013986929556179
  35    0.0018966250259586
  36    -0.00035857281831192
  37      0.72160275606645
  38     0.017955498087337
  39    -0.014143159362399
  40    0.00010615419826865
  41    -0.0001348223072287
  42    2.5153942429382e-05
  43    -0.0030632404834365
  44    -0.0010050272359098
  45    0.00038476365713911
  46    -9.4592832265637e-05
  47    0.00052709967761536
  48    -0.00027181215278238
  49    0.0010844087628339
  50    -6.6675156685693e-05
  51    0.00049125801597206
  52    -7.1986888544736e-05
  53    0.00051667937971273
  54    -0.00029080269994356
  55    0.0011541846245312
 Sym= A
 Ene=    -10.97776652
 Spin= Alpha
 Occup=    1.00000
   1    0.0029576748001059
   2    8.4125203275581e-05
   3    -0.0019797195948307
   4    -4.7020704322602e-06
   5    6.3709786083562e-06
   6    -1.1966327165095e-06
   7    -0.00058174510131097
   8      0.00084413872448
   9    -0.00016175415660883
  10    -0.039439683483941
  11    -0.0016821914326843
  12    0.0053512798909583
  13    -4.9969740671936e-05
  14     0.000232538030364
  15    -5.0183860089617e-05
  16    -0.0004077884417792
  17    -0.0023066225565372
  18    0.00054402350191974
  19      0.70421520650789
  20     0.017249704352345
  21    -0.0089304892197006
  22    2.7673132973045e-05
  23    9.7829698321592e-05
  24    -2.3582018025335e-05
  25    0.00046203695393166
  26    -0.001680232053245
  27    0.00035743406073818
  28      0.70207743385279
  29     0.017193444317472
  30    -0.0088711710832019
  31    -0.00010383000978981
  32    1.1602596053435e-05
  33    2.7043582916402e-06
  34    0.0014256359461811
  35    -0.0010404261180889
  36    0.00016300939253662
  37    -0.039332150610877
  38    -0.0016776708667866
  39    0.0053310457067592
  40    -0.0002016756446216
  41    0.00013373231674528
  42    -2.0010383781281e-05
  43    0.0023403269548367
  44    -0.00051171758043008
  45    -3.7100823778774e-06
  46    3.1083139483503e-06
  47    -9.7412640908793e-05
  48    -3.6618941891464e-05
  49    0.00034427895340501
  50    -0.00035979259868394
  51    0.0014419462187405
  52    -0.00035913702496844
  53    0.0014397543100875
  54    -3.6407322226248e-05
  55     0.000343487432071
 Sym= A
 Ene=    -10.97656853
 Spin= Alpha
 Occup=    1.00000
   1    4.3298894308441e-06
   2    1.1778216449922e-07
   3    -2.9814977246876e-06
   4    0.00014488362521667
   5    9.4255238742059e-05
   6    -2.8792275535336e-05
   7    0.0002847663585688
   8    0.00018683271652844
   9    -5.6948057388303e-05
  10     0.036740570425827
  11    0.0015206349798227
  12    -0.0066707497003924
  13    -8.7122240961333e-05
  14    -0.00010607857963675
  15    2.8518004013065e-05
  16    0.00049783339342169
  17    0.0028813197936757
  18    -0.00067897227898665
  19     -0.70251772461308
  20    -0.018499321933594
  21     0.019520224300889
  22    0.00030038985575411
  23    -3.5349280206082e-05
  24    -7.3832722305626e-06
  25    -0.0054260696793413
  26    0.00079351620247385
  27    9.773437532549e-05
  28      0.70465382036393
  29     0.018551661606243
  30    -0.019547122031169
  31    8.0680362340166e-05
  32    0.00028341721889285
  33    -6.8381980545326e-05
  34    -0.0013113269084259
  35    -0.0051809303384457
  36    0.0012421536635438
  37    -0.036862238388105
  38    -0.0015257736452795
  39    0.0066867746829958
  40    -0.00013473454291748
  41    -3.740360974426e-05
  42    1.5378386184235e-05
  43     0.002937074680348
  44    -0.00065364390562465
  45    -2.0635834343046e-06
  46    2.4783921718963e-08
  47    -2.9211678843976e-08
  48    6.8844131569164e-05
  49    -0.00025808607015594
  50    0.0002160579040127
  51    -0.00073012353672698
  52    -0.00021716102683743
  53    0.00073448236662067
  54    -6.8962956257181e-05
  55    0.00025907650462667
 Sym= A
 Ene=   -0.9053111431
 Spin= Alpha
 Occup=    1.00000
   1    -0.080745356321839
   2      0.15411636282446
   3      0.10045915267919
   4     0.038637812136981
   5    -0.056134624179272
   6     0.010753166445577
   7    0.0081738112173351
   8    -0.011873318795447
   9    0.0022748595754755
  10    -0.096376812333956
  11      0.18535210450747
  12      0.11486276812771
  13    -0.032165854878885
  14    -0.069581137307911
  15     0.017425881069303
  16    -0.0062854947701764
  17    -0.0069828991202698
  18    0.0019048132749216
  19     -0.11223391924429
  20      0.21646453148504
  21      0.13323564289163
  22    -0.081649794328171
  23     0.026555567382387
  24    -0.0018448535177953
  25    -0.0040066323360512
  26    0.0019642422131144
  27    -0.00024036906980941
  28     -0.11223364772923
  29      0.21646346163629
  30      0.13323756597679
  31    0.0058976842570272
  32     0.083488740675531
  33    -0.019238012224505
  34    -0.00033976614108432
  35    0.0043512322238354
  36    -0.00096941188167678
  37    -0.096378559557509
  38      0.18535535911205
  39      0.11486337860698
  40     0.078444108914925
  41    0.0023542108720389
  42    -0.0045500914181731
  43      0.00903677478039
  44    0.0029831435146024
  45    -0.0011396814481495
  46     0.029063113476749
  47    0.0086727125009244
  48     0.037064198657619
  49    0.0079452455454752
  50     0.042987538936168
  51    0.0060667727711277
  52     0.042987952094773
  53    0.0060674054845081
  54     0.037065160370202
  55     0.007944663284504
 Sym= A
 Ene=    -0.714034821
 Spin= Alpha
 Occup=    1.00000
   1    -2.305461705341e-05
   2    4.5443066055498e-05
   3    3.7776104144467e-05
   4    -0.088899705946468
   5    -0.057816570837095
   6     0.017662701026975
   7     -0.01105109670283
   8    -0.0071827707961966
   9    0.0021946489254854
  10      0.12628097663661
  11     -0.24952206844737
  12     -0.21929442674153
  13    -0.040822318723137
  14     0.049286651656206
  15    -0.0090881018218811
  16    -0.0092813474340206
  17     0.001677293166797
  18    9.5343606340948e-05
  19     0.084376178493955
  20     -0.16832184832467
  21     -0.12110034317412
  22    -0.036545069150004
  23     -0.11280062200093
  24     0.027454655004341
  25    -0.028199500112913
  26    -0.0070200239547553
  27       0.0030353314215
  28    -0.084344979784618
  29      0.16825958270728
  30      0.12104844364046
  31     -0.12124219801483
  32      0.01020179040151
  33    0.0038903385844565
  34    -0.017438235760019
  35    -0.022653254714451
  36     0.006030317922899
  37     -0.12629460206445
  38      0.24954855756898
  39      0.21931915270269
  40     0.031283919153359
  41    -0.055441704512876
  42     0.010972250385318
  43    -0.0019475459262546
  44    -0.0089728328749942
  45    0.0021339832235273
  46    1.859605536321e-05
  47    6.6724825720503e-06
  48    -0.093809700686334
  49    -0.036041466080081
  50    -0.062358409890533
  51    -0.017808319749483
  52     0.062336509236267
  53     0.017800565834284
  54     0.093820305537114
  55     0.036046189527146
 Sym= A
 Ene=   -0.6963518558
 Spin= Alpha
 Occup=    1.00000
   1      -0.1401721064723
   2      0.27395276560832
   3      0.25050729370466
   4     0.011725731625688
   5    -0.017024109007777
   6    0.0032505027177067
   7    -0.00060691343511109
   8    0.00088001242909081
   9    -0.00017202173894278
  10    -0.051435505424363
  11      0.10102397052215
  12     0.086462740146038
  13    -0.096162847517116
  14     0.073322050217843
  15    -0.011712816657602
  16    -0.011289822839096
  17     0.014500679634774
  18    -0.0027117768361345
  19     0.099882526031699
  20     -0.19817344391774
  21     -0.16745821301882
  22     0.031079069045502
  23     0.083526856582617
  24     -0.02053449148701
  25    -0.0078369066365219
  26     0.016815770482144
  27    -0.003412683206095
  28     0.099911926674431
  29     -0.19823220255858
  30     -0.16749225635677
  31    -0.091251109918258
  32    0.0039450732873603
  33     0.003775554255252
  34    -0.012994921826222
  35     0.013469991840048
  36    -0.0023898703553539
  37    -0.051398456469387
  38      0.10095157928555
  39     0.086389157384316
  40    -0.033054516989448
  41      0.11439850089786
  42    -0.024258855653083
  43    -0.009489156275055
  44     0.015679009433294
  45    -0.0030711809448289
  46      0.10123010332935
  47     0.043650373003265
  48     0.038889490290339
  49     0.015766610853166
  50    -0.079510806732898
  51    -0.030671762651422
  52    -0.079534110774159
  53    -0.030677498316807
  54     0.038861902258289
  55     0.015753300815585
 Sym= A
 Ene=   -0.5067607084
 Spin= Alpha
 Occup=    1.00000
   1    -0.098839392119363
   2      0.20085820497307
   3      0.13180811216589
   4    -0.056589896301683
   5     0.082148839930861
   6    -0.015761734127524
   7    -0.056714737590935
   8     0.082359994598945
   9    -0.015792101583022
  10     0.075852010244504
  11     -0.15620258772128
  12    -0.088741562935826
  13     -0.15969298348666
  14    -0.010872594703115
  15     0.010633437014694
  16    -0.091227300752622
  17    -0.046334603373965
  18     0.015177385303536
  19    -0.027466045812802
  20     0.056649435718367
  21     0.029282734562241
  22    -0.052236813505028
  23      -0.1776782658876
  24     0.042969685094878
  25     0.008562155375529
  26     -0.06435285349447
  27     0.014155973025988
  28    -0.027441162735429
  29     0.056598545240597
  30     0.029254485965979
  31      0.18892307315314
  32     -0.02083025708776
  33    -0.0049460620220428
  34     0.057940458650489
  35    -0.032215300216336
  36     0.004339985312964
  37     0.075839093287771
  38     -0.15617599820581
  39    -0.088731669038204
  40      0.07123632363783
  41      0.13935915209258
  42    -0.035258134292886
  43     0.078851411777192
  44     0.064287493940038
  45    -0.018616367737643
  46      0.15347564166426
  47     0.084788308075733
  48     -0.13858346719038
  49    -0.074762552299275
  50     0.036246443088253
  51     0.015040862063967
  52     0.036203335309075
  53     0.015018429699293
  54     -0.13855962847954
  55    -0.074749708515013
 Sym= A
 Ene=   -0.4881086177
 Spin= Alpha
 Occup=    1.00000
   1    -1.5027602115708e-05
   2    2.9799628231664e-05
   3    2.5276635120872e-05
   4      0.13886771948022
   5      0.09030395263604
   6    -0.027588212162366
   7      0.04829507153904
   8     0.031413868848421
   9    -0.0095964160766844
  10    -0.060245112487984
  11      0.11984950882269
  12     0.093113398862405
  13     -0.04974960121407
  14      0.15756462050397
  15    -0.033193590455806
  16    0.0027501762898587
  17      0.07501089668543
  18    -0.017155607244402
  19     0.086100531325967
  20     -0.17375824456808
  21     -0.11316281045174
  22     -0.13198151176391
  23    -0.0066654398828359
  24     0.008267382318357
  25     -0.10162244067867
  26     0.020270065476182
  27    0.00060472593626612
  28     -0.08610300111488
  29      0.17376354352916
  30      0.11315847231195
  31     -0.05665194176943
  32     -0.11600636086444
  33      0.02920889632126
  34    -0.019481997865182
  35     -0.09903205732376
  36     0.023456657600826
  37      0.06026396174886
  38     -0.11988866462531
  39    -0.093137213830268
  40       0.1309186379578
  41      -0.1047623322105
  42     0.017063799210871
  43     0.072416417858028
  44    -0.026127684288095
  45    0.0022218614456811
  46    8.1736144073266e-06
  47    3.6906564548838e-06
  48      0.11430586169978
  49      0.07155443848947
  50     -0.15737549270264
  51    -0.090304393904677
  52      0.15736302565128
  53     0.090290782258606
  54     -0.11436403032553
  55    -0.071592100342901
 Sym= A
 Ene=   -0.4644432414
 Spin= Alpha
 Occup=    1.00000
   1     0.023720039113653
   2    -0.046124515699935
   3    -0.059189875602533
   4      0.10557719440069
   5     -0.15337307520382
   6     0.029408734513601
   7     0.039290856087535
   8    -0.057075750369376
   9     0.010942872154753
  10    0.0047876050471448
  11    -0.0085663744251701
  12    -0.025372647548868
  13     -0.11161105952878
  14     -0.15232290132543
  15     0.040264432701243
  16    -0.038122335805547
  17      -0.0442756582687
  18     0.011994336274942
  19     0.010326970417398
  20    -0.019479364860596
  21    -0.028894756797351
  22     -0.20506727225895
  23     0.092074631052809
  24    -0.010384043297961
  25    -0.069332036932799
  26     0.032902654824967
  27    -0.0039125894266474
  28     0.010341584234481
  29    -0.019508383099558
  30    -0.028920972939144
  31    -0.0093157206835401
  32      0.21939521090967
  33     -0.04927897507386
  34    -0.0048353847285441
  35     0.074857153021605
  36    -0.016728827047402
  37    0.0047743078232374
  38    -0.0085402470701849
  39    -0.025342115531913
  40      0.18742513919198
  41       0.0421689285559
  42    -0.019151039669713
  43     0.056643309716443
  44     0.017361077180875
  45    -0.0068349991670579
  46     -0.12899574433214
  47     -0.10152722640233
  48      -0.1133014883388
  49    -0.092965381397668
  50     -0.13802338646617
  51     -0.11059159362785
  52     -0.13805433187256
  53     -0.11061208403332
  54     -0.11327734377941
  55    -0.092948162208235
 Sym= A
 Ene=   -0.3096420569
 Spin= Alpha
 Occup=    1.00000
   1    -1.3224608776667e-06
   2    3.0070516979518e-06
   3    4.9431799035127e-06
   4    -0.063220217188935
   5    -0.041145449810934
   6     0.012567424467757
   7    -0.015502487236104
   8    -0.010091641251964
   9    0.0030822113581218
  10     0.031955077770879
  11    -0.069584493662637
  12    -0.098780397474617
  13       0.1073370378981
  14      0.25792684126655
  15    -0.063994305423891
  16     0.046272295509102
  17     0.089492742746075
  18    -0.022666630748733
  19     0.015689600438532
  20     -0.03698944941915
  21    -0.055463920006984
  22      0.15268215824563
  23      -0.1922455511601
  24     0.035786152902582
  25     0.064180739607825
  26    -0.070437763604526
  27     0.012690407263279
  28    -0.015685997846575
  29     0.036981082805431
  30     0.055452747536291
  31     -0.12455067215127
  32      0.21050415543041
  33    -0.041367005207239
  34    -0.042489710458247
  35     0.084528396761515
  36    -0.016996324395908
  37    -0.031957436542345
  38     0.069588866800454
  39     0.098790814953523
  40      0.28623196084491
  41    -0.0019454121587827
  42    -0.014205190183661
  43      0.10276148620055
  44     0.007437755781725
  45    -0.0069447715210383
  46    -1.722339227235e-05
  47    -2.0564145051813e-05
  48      0.15890269320185
  49      0.17776271015822
  50      0.13793092424699
  51      0.14853952253381
  52     -0.13792029267332
  53     -0.14852673479401
  54     -0.15889659252579
  55     -0.17775564332357
 Sym= A
 Ene=   -0.3007802714
 Spin= Alpha
 Occup=    1.00000
   1     0.031696887612292
   2    -0.065495327927688
   3     -0.11236666665074
   4     -0.18375704790302
   5      0.26685567190634
   6    -0.051200894189317
   7    -0.077445050495845
   8      0.11246708305767
   9    -0.021583833007907
  10    0.0090261106146141
  11    -0.018461680825171
  12    -0.035842679617567
  13      0.17294857538746
  14    -0.021582966506219
  15    -0.0039877849834424
  16     0.067202534016873
  17    -0.0050426079140134
  18    -0.0023159519084593
  19    -0.025309354589328
  20     0.057689334411022
  21      0.07563240469307
  22     -0.23789384752361
  23     0.027513177324373
  24    0.0059082727453103
  25    -0.091923701382754
  26     0.015539505714745
  27    0.0011625169756522
  28    -0.025314455303413
  29     0.057699801948629
  30     0.075643543007614
  31     0.064589057414861
  32      0.22422941299595
  33    -0.054188147921898
  34     0.020284925026267
  35     0.088507269596501
  36    -0.021129448479232
  37    0.0090248483214718
  38    -0.018459326666026
  39    -0.035833798567063
  40    -0.045427594515225
  41      -0.1635885265362
  42     0.039395602287467
  43    -0.020830420302514
  44    -0.062283581750986
  45     0.015171838637588
  46      0.20114977006145
  47      0.22314089642528
  48     0.059987866995484
  49     0.066155998449313
  50     -0.14087006654477
  51     -0.15685352503439
  52     -0.14086576737669
  53     -0.15685267096394
  54     0.059949867296075
  55     0.066118332710941
 Sym= A
 Ene=   -0.2923880255
 Spin= Alpha
 Occup=    1.00000
   1    0.0092408694034763
   2    -0.017206560092246
   3     -0.00885410305232
   4     0.079477013735181
   5     -0.11538166385101
   6     0.022165601200883
   7     0.042730722713329
   8    -0.062038288514084
   9     0.011920861359687
  10    -0.0046409089472487
  11    0.0053849008029696
  12    0.0087939634325072
  13    -0.053621036164469
  14      0.22915224647878
  15    -0.049194288429713
  16    -0.016631534440239
  17      0.10448977901175
  18    -0.022825950198697
  19    0.00011439265346858
  20    0.00093617708376034
  21    0.0014592679532802
  22     -0.18247957396933
  23     -0.27661140614985
  24     0.072111340034203
  25    -0.083077172665115
  26     -0.11625260782923
  27     0.030641322147656
  28    0.00011639875060931
  29    0.00093221011599507
  30    0.0014517671161409
  31      0.33269513412959
  32     0.058409427536453
  33    -0.030238166148321
  34      0.14226023873903
  35      0.03028716982707
  36    -0.014126730224492
  37    -0.0046373114156976
  38    0.0053779055546926
  39    0.0087804150141826
  40     -0.19749175230376
  41      0.13557633889377
  42    -0.020607978616901
  43    -0.093033673797133
  44     0.054796700852894
  45    -0.0076453011878036
  46     -0.12588132886225
  47      -0.1251339186323
  48      0.12203965973778
  49      0.12285422864006
  50    -0.056584580813104
  51    -0.056744577862466
  52    -0.056586422894119
  53    -0.056743948022836
  54      0.12206954335717
  55       0.1228853224554
 Sym= A
 Ene=   -0.2616433554
 Spin= Alpha
 Occup=    1.00000
   1    -3.1098505999319e-06
   2    7.0887868309001e-06
   3    -1.2307469221573e-05
   4    0.0098497353248753
   5     0.043980345900491
   6       0.1935450939445
   7    0.0068409782880028
   8      0.03054604871536
   9       0.1344230509871
  10    2.6420971993833e-06
  11    -6.7934283762574e-06
  12    6.9174981709837e-06
  13     0.011060577437484
  14      0.04882716392779
  15       0.2154520421334
  16    0.0075341054230215
  17     0.033352038572766
  18       0.1471530905502
  19    -4.757597156784e-06
  20    9.983711155301e-06
  21    1.321162038697e-05
  22     0.012335534718928
  23     0.054718827247498
  24       0.2410507730719
  25    0.0082882808417947
  26     0.036728073219069
  27      0.16184787677913
  28    -4.7951616561639e-06
  29    1.0048990964445e-05
  30    1.3248367482009e-05
  31     0.012294810126199
  32     0.054691350061422
  33      0.24105812359344
  34    0.0082630878780857
  35     0.036711005128802
  36      0.16185190288351
  37    2.6044099835765e-06
  38    -6.72342533213e-06
  39    7.1857020463814e-06
  40     0.011047916532212
  41     0.048820200932896
  42      0.21545396755218
  43    0.0075503029824383
  44      0.03336330389952
  45      0.14715014749251
  46    5.2044205093995e-05
  47    5.5264504316441e-05
  48    -1.2772395596052e-05
  49    -8.6286331367355e-06
  50    -1.0015653676402e-05
  51    -1.3881902523754e-05
  52    -9.479857550293e-06
  53    -1.3350100332075e-05
  54    -1.3290114440438e-05
  55    -9.1628840793879e-06
 Sym= A
 Ene=   -0.2593751551
 Spin= Alpha
 Occup=    1.00000
   1    -2.1974510604277e-06
   2    2.6145544888864e-06
   3    5.2898460859155e-06
   4      0.30134853101166
   5      0.19602840434927
   6    -0.059881812237459
   7      0.14070544890172
   8       0.0915294642379
   9    -0.027959859899455
  10    -0.0077513613369257
  11     0.014413410283059
  12     0.054080581670661
  13     -0.29494331608768
  14     0.068930059412052
  15    -0.00054667383963992
  16      -0.1568997716585
  17     0.026146852694763
  18    0.0020941343421351
  19    -0.0066829259007638
  20     0.011131877280006
  21    0.0068730080729307
  22     0.077137197567484
  23      -0.1179962172003
  24     0.022811517376698
  25     0.058384151079257
  26    -0.061099887418206
  27     0.010868946977507
  28    0.0066794356195264
  29    -0.011123556330192
  30    -0.0068612732031473
  31    -0.082817311245432
  32      0.11434485784664
  33    -0.021691440211682
  34    -0.035847360837646
  35     0.075771220146669
  36    -0.015349005659396
  37    0.0077538719176039
  38    -0.014419791430915
  39    -0.054082345431917
  40    -0.046963456101308
  41     -0.29132915108197
  42     0.068486781050262
  43    -0.034986023562254