[Molden Format]
made by pyscf v[2.12.1]
[Atoms] (AU)
N   1   7     0.00000000000000     0.00000000000000     0.00000000000000
N   2   7     0.00000000000000     0.00000000000000     2.07435236693507
[GTO]
1 0
 s    3 1.00
               242.766   0.059865700507811
               36.4851    0.35295500299394
               7.81449    0.70651300599299
 s    2 1.00
               5.42522   -0.41330007742987
               1.14915     1.2244172668507
 s    1 1.00
              0.283205                   1
 p    2 1.00
               5.42522     0.2379720162216
               1.14915    0.85895305855138
 p    1 1.00
              0.283205                   1

2 0
 s    3 1.00
               242.766   0.059865700507811
               36.4851    0.35295500299394
               7.81449    0.70651300599299
 s    2 1.00
               5.42522   -0.41330007742987
               1.14915     1.2244172668507
 s    1 1.00
              0.283205                   1
 p    2 1.00
               5.42522     0.2379720162216
               1.14915    0.85895305855138
 p    1 1.00
              0.283205                   1

[5d]
[7f]
[9g]

[MO]
 Sym= A
 Ene=    -15.61496156
 Spin= Alpha
 Occup=    1.00000
   1      0.69644473194778
   2     0.063510767658919
   3     -0.01572906276447
   4    -1.0707642494725e-16
   5    -1.0646398820089e-16
   6    0.0015101156447166
   7    -1.7119903993382e-17
   8    -8.8056349410746e-18
   9    -0.0023354308088421
  10      0.69644473191502
  11     0.063510767655613
  12    -0.015729062761638
  13    -1.4775374851254e-18
  14    -2.2890484931355e-18
  15    -0.0015101156444697
  16    -3.3903567522404e-19
  17    8.1091640542295e-19
  18    0.0023354308076694
 Sym= A
 Ene=    -15.61435575
 Spin= Alpha
 Occup=    1.00000
   1     -0.69691311519154
   2    -0.070353352103721
   3     0.060277097229853
   4    -6.7105334827347e-17
   5    -1.0963486094551e-16
   6    -0.005261978530942
   7    -6.9221865834681e-18
   8    -8.7861980787797e-18
   9     0.024959216667201
  10      0.69691311522428
  11     0.070353352106706
  12    -0.060277097230593
  13    -1.4072871616978e-18
  14    -2.4922335837511e-18
  15    -0.0052619785310127
  16    -9.0966902395306e-19
  17    7.6256951231064e-19
  18     0.024959216667311
 Sym= A
 Ene=    -1.507494846
 Spin= Alpha
 Occup=    1.00000
   1     -0.16786635157964
   2      0.19893388687075
   3      0.32205928990652
   4    1.8322939113607e-16
   5    1.181550541079e-16
   6      0.21837039202967
   7    9.8375609157723e-17
   8    6.6920881745922e-17
   9      0.07293216334042
  10     -0.16786635157963
  11      0.19893388687075
  12       0.3220592899065
  13    3.756174438199e-17
  14    4.2836197605518e-17
  15     -0.21837039202967
  16    2.2283445043712e-17
  17    2.3522715585553e-17
  18    -0.072932163340409
 Sym= A
 Ene=   -0.7617619928
 Spin= Alpha
 Occup=    1.00000
   1     -0.16245545944788
   2      0.16084222983028
   3      0.70057964938893
   4    -1.1326543829578e-15
   5    -5.2436657797108e-16
   6     -0.16703275820761
   7    -8.9945786862967e-16
   8    -4.4980888012254e-16
   9     -0.07253316309723
  10      0.16245545944787
  11     -0.16084222983027
  12     -0.70057964938888
  13    -6.8777499853729e-16
  14    -4.2445762155001e-16
  15     -0.16703275820756
  16    -6.1623053426925e-16
  17    -3.8842933328212e-16
  18    -0.072533163097188
 Sym= A
 Ene=   -0.6144278854
 Spin= Alpha
 Occup=    1.00000
   1    -0.069160189386179
   2     0.024441988168396
   3      0.39582187774425
   4    -1.493802661931e-13
   5    -1.144272359159e-13
   6     -0.40226524372505
   7    -1.4524686667285e-13
   8    -1.1118228734002e-13
   9     -0.28020070657674
  10    -0.069160189386201
  11     0.024441988168428
  12      0.39582187774429
  13    -1.4876301829781e-13
  14    -1.1393290359995e-13
  15      0.40226524372507
  16    -1.4481470909344e-13
  17    -1.1087309739332e-13
  18       0.2802007065768
 Sym= A
 Ene=   -0.6135037595
 Spin= Alpha
 Occup=    1.00000
   1    -1.3142740647704e-14
   2    4.7198071278766e-15
   3    7.4750117001461e-14
   4     -0.10048772356074
   5      0.34315165304301
   6    -7.6111851409359e-14
   7    -0.097894421720139
   8      0.33429588656816
   9    -5.3435446343837e-14
  10    -1.2973283519077e-14
  11    4.5467847196533e-15
  12    7.4842537501984e-14
  13     -0.10048772356074
  14      0.34315165304301
  15    7.610621110279e-14
  16    -0.097894421720136
  17      0.33429588656815
  18    5.2559408431202e-14
 Sym= A
 Ene=   -0.6135037595
 Spin= Alpha
 Occup=    1.00000
   1    -3.4257375966631e-14
   2    1.2307623819306e-14
   3    1.9650385321005e-13
   4      0.34315165304301
   5      0.10048772356074
   6    -1.9719867884717e-13
   7      0.33429588656816
   8     0.097894421720138
   9    -1.3672975334444e-13
  10    -3.337405419529e-14
  11    1.1613205305292e-14
  12    1.9071684236723e-13
  13      0.34315165304301
  14      0.10048772356074
  15    1.9664055397724e-13
  16      0.33429588656815
  17     0.097894421720137
  18    1.377726780085e-13
 Sym= A
 Ene=    0.1775825596
 Spin= Alpha
 Occup=    0.00000
   1    2.8812557763236e-17
   2    -5.6031872774326e-17
   3    1.6069756824434e-16
   4    -0.059543202573138
   5     -0.36823278867723
   6    2.6590869881732e-16
   7     -0.10757978298478
   8     -0.66530522010665
   9    4.1349173911534e-16
  10    -6.9127130105547e-18
  11    -1.1153670114313e-16
  12    -3.5123074964718e-16
  13     0.059543202573138
  14      0.36823278867724
  15    -2.649970332028e-16
  16      0.10757978298478
  17      0.66530522010665
  18    2.1084602418411e-16
 Sym= A
 Ene=    0.1775825596
 Spin= Alpha
 Occup=    0.00000
   1    8.1561917558509e-17
   2    -5.7419564693017e-17
   3    -7.4959278256455e-16
   4     -0.36823278867723
   5     0.059543202573138
   6    2.4089205352253e-16
   7     -0.66530522010665
   8      0.10757978298478
   9    -1.6141703273827e-16
  10    -5.4699395362629e-17
  11    1.0835622244435e-17
  12    5.503158487327e-16
  13      0.36823278867724
  14    -0.059543202573138
  15    -2.0428653715302e-16
  16      0.66530522010665
  17     -0.10757978298478
  18    -3.8183166731873e-16
 Sym= A
 Ene=    0.7473818849
 Spin= Alpha
 Occup=    0.00000
   1      -0.1389288553864
   2     0.061917660739479
   3       2.8952231821751
   4    -1.4377675508171e-16
   5    -2.7616232444707e-17
   6      0.19269513119568
   7    3.1397576831907e-16
   8    2.9919792324056e-16
   9       2.1361589444462
  10      0.13892885538641
  11    -0.061917660739507
  12      -2.8952231821751
  13    -1.3685929084569e-16
  14    -3.8065645503931e-17
  15      0.19269513119562
  16    1.0507383211044e-18
  17    -1.4391747586155e-16
  18       2.1361589444462
 Sym= A
 Ene=     1.206279863
 Spin= Alpha
 Occup=    0.00000
   1    -0.036262121282923
   2     -0.14173656426771
   3     -0.12939519469006
   4    4.1700778387669e-15
   5    1.7448125770086e-15
   6     -0.63670367804311
   7    -3.7388811926209e-15
   8    -1.6096518607972e-15
   9      0.89777769432642
  10     -0.03626212128291
  11     -0.14173656426776
  12      -0.1293951946902
  13    2.3487985533718e-15
  14    1.1461974791123e-15
  15      0.63670367804312
  16    -1.3077416211368e-15
  17    -7.0177740579648e-16
  18     -0.89777769432628
 Sym= A
 Ene=     1.279873275
 Spin= Alpha
 Occup=    0.00000
   1    9.8832224768546e-17
   2    9.7394788698751e-16
   3    8.9084544530889e-16
   4      0.60701808014866
   5       0.4226713235043
   6    3.2541917170611e-15
   7     -0.48177291537678
   8     -0.33546215908588
   9    -4.1841789339875e-15
  10    2.3428137612413e-16
  11    1.0126488470845e-15
  12    -2.3318994076186e-16
  13      0.60701808014866
  14      0.42267132350428
  15    -2.5334269900396e-15
  16     -0.48177291537677
  17     -0.33546215908584
  18    4.2613862966829e-15
 Sym= A
 Ene=     1.279873275
 Spin= Alpha
 Occup=    0.00000
   1    -4.3145770243146e-17
   2    -2.7009207337404e-16
   3    -6.4461026082942e-17
   4     -0.42267132350429
   5      0.60701808014867
   6    -1.1588041055068e-17
   7      0.33546215908586
   8      -0.4817729153768
   9    5.2621959355275e-16
  10    -6.5116165372459e-17
  11    -1.9555860504973e-16
  12    -2.4661521609991e-18
  13     -0.42267132350429
  14      0.60701808014864
  15    1.0387785583105e-15
  16      0.33546215908586
  17     -0.48177291537676
  18    -1.0876750371188e-15
 Sym= A
 Ene=     1.418013795
 Spin= Alpha
 Occup=    0.00000
   1    2.4446219790759e-18
   2    4.6824988097154e-16
   3    5.4257521576332e-17
   4      0.75051116433025
   5     0.085045641795775
   6    8.7348469734746e-16
   7      -0.9930740123983
   8     -0.11253212576856
   9    -1.4184671596091e-15
  10    1.0289190685816e-16
  11    5.0050706333144e-16
  12    -1.3579815536239e-16
  13     -0.75051116433025
  14    -0.085045641795781
  15    -4.92058025878e-16
  16       0.9930740123983
  17      0.11253212576857
  18    1.0218025701337e-15
 Sym= A
 Ene=     1.418013795
 Spin= Alpha
 Occup=    0.00000
   1    -4.9731152798174e-17
   2    1.8352829669249e-17
   3    -2.0078551480991e-16
   4    -0.085045641795779
   5      0.75051116433023
   6    1.8902047803529e-15
   7      0.11253212576856
   8     -0.99307401239829
   9    -1.4564982047382e-15
  10    6.7308098904806e-17
  11    5.5697432144442e-16
  12    -1.2821586459404e-16
  13     0.085045641795777
  14     -0.75051116433027
  15    1.4378252025247e-15
  16     -0.11253212576856
  17      0.99307401239832
  18    -8.7369839633692e-16
 Sym= A
 Ene=     1.472039143
 Spin= Alpha
 Occup=    0.00000
   1    -0.016489477181685
   2     -0.10210309722399
   3     -0.37537080740274
   4    -1.9388600601274e-16
   5    -2.1102655398538e-15
   6      0.86378323619561
   7    1.5942158943065e-16
   8    2.0859620138979e-15
   9       -0.829931920559
  10     0.016489477181684
  11      0.10210309722398
  12      0.37537080740274
  13    -1.0645131334861e-17
  14    9.4350756822461e-16
  15      0.86378323619563
  16    -1.0585839368152e-17
  17    -1.4711441886898e-15
  18     -0.82993192055902
 Sym= A
 Ene=      1.84902224
 Spin= Alpha
 Occup=    0.00000
   1    -0.055577386149378
   2       1.0908558861693
   3     -0.80085383602642
   4    -2.5523016847839e-16
   5    -2.5139303058474e-16
   6    -0.082769171249965
   7    2.0489886419918e-16
   8    2.6009095224842e-16
   9    -0.036158573031632
  10    -0.055577386149372
  11       1.0908558861693
  12     -0.80085383602627
  13    -3.3573630990954e-17
  14    4.5404526186175e-17
  15     0.082769171249982
  16    -6.271077628657e-20
  17    -1.002469334024e-16
  18     0.036158573031589
 Sym= A
 Ene=     2.563215971
 Spin= Alpha
 Occup=    0.00000
   1    -0.019727653955235
   2       1.2866564895188
   3      -3.6054909867633
   4    -1.4084718394827e-16
   5    6.7693117448725e-17
   6      0.14735677730203
   7    1.0218434424194e-16
   8    -5.1770742825833e-17
   9      -1.7147472621765
  10      0.01972765395524
  11      -1.2866564895188
  12       3.6054909867634
  13    2.1993739206573e-17
  14    -7.2945825168677e-18
  15      0.14735677730201
  16    -5.1267727840004e-17
  17    1.9147140535388e-17
  18      -1.7147472621764
