[Molden Format]
made by pyscf v[2.12.1]
[Atoms] (AU)
N   1   7     0.00000000000000     0.00000000000000     0.00000000000000
N   2   7     0.00000000000000     0.00000000000000     2.07435236693507
[GTO]
1 0
 s    3 1.00
               242.766   0.059865700507811
               36.4851    0.35295500299394
               7.81449    0.70651300599299
 s    2 1.00
               5.42522   -0.41330007742987
               1.14915     1.2244172668507
 s    1 1.00
              0.283205                   1
 p    2 1.00
               5.42522     0.2379720162216
               1.14915    0.85895305855138
 p    1 1.00
              0.283205                   1

2 0
 s    3 1.00
               242.766   0.059865700507811
               36.4851    0.35295500299394
               7.81449    0.70651300599299
 s    2 1.00
               5.42522   -0.41330007742987
               1.14915     1.2244172668507
 s    1 1.00
              0.283205                   1
 p    2 1.00
               5.42522     0.2379720162216
               1.14915    0.85895305855138
 p    1 1.00
              0.283205                   1

[5d]
[7f]
[9g]

[MO]
 Sym= A
 Ene=    -15.61496156
 Spin= Alpha
 Occup=    1.00000
   1       0.6964447319459
   2      0.06351076765873
   3    -0.015729062764308
   4    3.6959955342517e-17
   5    -1.6461950469687e-16
   6     0.001510115644703
   7    1.0021443269719e-17
   8    -3.5390158798679e-18
   9    -0.0023354308087752
  10      0.69644473191689
  11     0.063510767655802
  12      -0.0157290627618
  13    1.480040114399e-18
  14    -1.5102223938144e-19
  15    -0.0015101156444839
  16    -2.286794106713e-19
  17    2.4758776259714e-19
  18    0.0023354308077362
 Sym= A
 Ene=    -15.61435575
 Spin= Alpha
 Occup=    1.00000
   1     -0.69691311519342
   2    -0.070353352103891
   3     0.060277097229897
   4    7.6576416205025e-17
   5    -1.0529158091684e-16
   6    -0.0052619785309455
   7    1.2155555379295e-17
   8    -5.2931291483509e-18
   9     0.024959216667208
  10       0.6969131152224
  11     0.070353352106535
  12    -0.060277097230551
  13    1.4261138393713e-18
  14    -4.8943381718267e-19
  15    -0.0052619785310088
  16    -9.1408597722753e-19
  17    6.4823767390197e-19
  18     0.024959216667305
 Sym= A
 Ene=    -1.507494846
 Spin= Alpha
 Occup=    1.00000
   1     -0.16786635157964
   2      0.19893388687075
   3      0.32205928990652
   4    1.3884472387137e-16
   5    2.0109796189869e-16
   6      0.21837039202967
   7    5.7157102096304e-17
   8    1.3408860412517e-16
   9     0.072932163340421
  10     -0.16786635157963
  11      0.19893388687075
  12       0.3220592899065
  13    2.6879636274037e-17
  14    7.9895663069335e-17
  15     -0.21837039202967
  16    8.856037670765e-18
  17    5.0203592529692e-17
  18     -0.07293216334041
 Sym= A
 Ene=   -0.7617619928
 Spin= Alpha
 Occup=    1.00000
   1     -0.16245545944787
   2      0.16084222983029
   3      0.70057964938883
   4    6.4344782166359e-17
   5    -1.1538679836049e-15
   6      -0.1670327582076
   7    3.0304179464211e-16
   8    -1.110944678746e-15
   9    -0.072533163097272
  10      0.16245545944787
  11     -0.16084222983028
  12     -0.70057964938881
  13    2.3506192785626e-16
  14    -7.8629205440613e-16
  15     -0.16703275820757
  16    2.3940312338408e-16
  17    -7.2294703511318e-16
  18    -0.072533163097254
 Sym= A
 Ene=   -0.6144278854
 Spin= Alpha
 Occup=    1.00000
   1    -0.069160189386186
   2     0.024441988168407
   3      0.39582187774425
   4    -5.6526164490828e-14
   5    -1.3235469624726e-13
   6     -0.40226524372506
   7    -5.4956249246737e-14
   8    -1.2844214435872e-13
   9     -0.28020070657677
  10    -0.069160189386195
  11     0.024441988168417
  12       0.3958218777443
  13    -5.6372322411669e-14
  14    -1.3213116037611e-13
  15      0.40226524372506
  16    -5.48793993759e-14
  17    -1.2863616631837e-13
  18      0.28020070657677
 Sym= A
 Ene=   -0.6135037595
 Spin= Alpha
 Occup=    1.00000
   1    -2.8068063689609e-14
   2    1.0131602020169e-14
   3    1.5981308966866e-13
   4      0.13678544025231
   5      0.33036431845396
   6    -1.6200887919566e-13
   7       0.1332553977615
   8      0.32183855665183
   9    -1.134949633057e-13
  10    -2.747050284669e-14
  11    9.4064651795366e-15
  12    1.5811442996146e-13
  13      0.13678544025231
  14      0.33036431845396
  15    1.6152262368752e-13
  16       0.1332553977615
  17      0.32183855665183
  18    1.1193974531431e-13
 Sym= A
 Ene=   -0.6135037595
 Spin= Alpha
 Occup=    1.00000
   1    -5.067622275408e-17
   2    -1.3384384848504e-16
   3    6.1375453805562e-16
   4      0.33036431845396
   5     -0.13678544025231
   6    -1.5150145518307e-15
   7      0.32183855665183
   8      -0.1332553977615
   9    -1.1717045259886e-15
  10    -5.6737033879045e-16
  11    4.541993356316e-16
  12    2.7682115619301e-15
  13      0.33036431845396
  14     -0.13678544025231
  15    1.9415398516563e-15
  16      0.32183855665183
  17      -0.1332553977615
  18    1.3072269650062e-15
 Sym= A
 Ene=    0.1775825596
 Spin= Alpha
 Occup=    0.00000
   1    -1.1691573872523e-17
   2    -2.6668744378282e-17
   3    2.5555013079898e-16
   4      0.37214283273897
   5     0.025504738200874
   6    -1.271858127529e-17
   7       0.6723696988959
   8      0.04608072932193
   9    -5.220934007689e-17
  10    -1.0965883131466e-17
  11    4.406780232567e-18
  12    -1.564527623844e-16
  13     -0.37214283273897
  14    -0.025504738200875
  15    9.5318731944782e-18
  16      -0.6723696988959
  17     -0.04608072932193
  18    1.8243680983191e-16
 Sym= A
 Ene=    0.1775825596
 Spin= Alpha
 Occup=    0.00000
   1    5.1081154179178e-17
   2    -1.3453011723819e-16
   3    -3.1480682069453e-16
   4     0.025504738200874
   5     -0.37214283273897
   6    -1.3913057294218e-17
   7      0.04608072932193
   8      -0.6723696988959
   9    1.8389064056992e-16
  10    -1.5811778919765e-16
  11    -1.0249800506097e-16
  12    4.4817443696255e-16
  13    -0.025504738200874
  14      0.37214283273897
  15    -8.3759475860604e-17
  16     -0.04608072932193
  17       0.6723696988959
  18    -1.3897653002962e-16
 Sym= A
 Ene=    0.7473818849
 Spin= Alpha
 Occup=    0.00000
   1      0.13892885538641
   2    -0.061917660739575
   3      -2.8952231821749
   4    -1.6665707118107e-16
   5    -4.6628173945799e-18
   6     -0.19269513119569
   7    1.1394724884471e-16
   8    8.8598072488389e-18
   9      -2.1361589444461
  10     -0.13892885538641
  11     0.061917660739554
  12       2.8952231821749
  13    -3.406101461449e-18
  14    -2.1931031254343e-17
  15     -0.19269513119566
  16    -3.0699428882191e-17
  17    -8.6868083936542e-17
  18      -2.1361589444461
 Sym= A
 Ene=     1.206279863
 Spin= Alpha
 Occup=    0.00000
   1     -0.03626212128292
   2     -0.14173656426772
   3     -0.12939519469009
   4    7.1386889434747e-16
   5    -2.8396541536982e-15
   6     -0.63670367804311
   7    -5.1613924066233e-16
   8    2.968997106678e-15
   9      0.89777769432638
  10    -0.036262121282912
  11     -0.14173656426775
  12     -0.12939519469016
  13    3.4187980911543e-16
  14    -1.284830387454e-15
  15      0.63670367804312
  16    -2.2206119547749e-16
  17    4.7987184202521e-16
  18     -0.89777769432632
 Sym= A
 Ene=     1.279873275
 Spin= Alpha
 Occup=    0.00000
   1    -1.3093741544301e-16
   2    -4.2208353995642e-16
   3    -5.3067088973497e-16
   4     -0.10846997711407
   5      0.73168043666967
   6    -1.1668182519245e-15
   7     0.086089523218648
   8     -0.58071386771903
   9    1.9508024622962e-15
  10    -1.5515443316233e-18
  11    -2.4795390964163e-16
  12    -4.5253240813148e-16
  13     -0.10846997711407
  14      0.73168043666965
  15    2.4544738560727e-15
  16     0.086089523218647
  17       -0.580713867719
  18    -3.1763058532887e-15
 Sym= A
 Ene=     1.279873275
 Spin= Alpha
 Occup=    0.00000
   1    -2.8036115183015e-17
   2    1.0244229087558e-16
   3    -1.8366993511627e-16
   4      0.73168043666967
   5      0.10846997711407
   6    8.9526986661187e-16
   7     -0.58071386771903
   8     -0.08608952321865
   9    -8.3887151160546e-16
  10    3.8207504353728e-17
  11    2.3475644426548e-16
  12    2.5368441861625e-17
  13      0.73168043666965
  14      0.10846997711406
  15    5.8704745446078e-16
  16       -0.580713867719
  17    -0.086089523218644
  18    -3.5210025189596e-16
 Sym= A
 Ene=     1.418013795
 Spin= Alpha
 Occup=    0.00000
   1    -8.4047495329969e-17
   2    -1.0945828581765e-16
   3    -5.6381688323665e-16
   4    -0.016640693815854
   5      0.75513101928216
   6    5.1491576883737e-16
   7     0.022018913724687
   8     -0.99918698994193
   9    -8.3270666288263e-17
  10    4.3246970445377e-17
  11    3.4824336846706e-16
  12    -2.1351183673814e-16
  13     0.016640693815854
  14     -0.75513101928218
  15    1.9481570800328e-15
  16    -0.022018913724687
  17      0.99918698994195
  18    -2.0721424521073e-15
 Sym= A
 Ene=     1.418013795
 Spin= Alpha
 Occup=    0.00000
   1    -3.5972786608393e-17
   2    -1.1075434250712e-16
   3    -8.6283403528664e-16
   4      0.75513101928216
   5     0.016640693815852
   6    1.7369330402789e-15
   7     -0.99918698994193
   8    -0.022018913724685
   9    -1.7847634741551e-15
  10    2.8532437624453e-17
  11    3.1547265783809e-17
  12    1.0223958036936e-15
  13     -0.75513101928218
  14    -0.016640693815856
  15    1.5758003016148e-15
  16      0.99918698994195
  17     0.022018913724688
  18    -1.5319835862485e-15
 Sym= A
 Ene=     1.472039143
 Spin= Alpha
 Occup=    0.00000
   1    -0.016489477181681
   2     -0.10210309722401
   3     -0.37537080740275
   4    -1.8526892720484e-15
   5    -1.6266181424167e-15
   6      0.86378323619562
   7    2.3285519706587e-15
   8    2.1360290627938e-15
   9     -0.82993192055904
  10     0.016489477181682
  11      0.10210309722399
  12      0.37537080740276
  13    7.9073322917152e-16
  14    4.5725257582498e-16
  15      0.86378323619562
  16    -1.3581900718502e-15
  17    -9.3431968482774e-16
  18     -0.82993192055903
 Sym= A
 Ene=      1.84902224
 Spin= Alpha
 Occup=    0.00000
   1    -0.055577386149373
   2       1.0908558861693
   3     -0.80085383602631
   4    -1.1706515964222e-16
   5    -4.0555384199933e-16
   6    -0.082769171249974
   7    1.1947402904243e-16
   8    2.1599220206366e-16
   9    -0.036158573031594
  10    -0.055577386149377
  11       1.0908558861693
  12     -0.80085383602639
  13    -1.316493235934e-16
  14    1.150757247994e-16
  15     0.082769171249983
  16    6.969335180855e-17
  17    -1.209499706378e-16
  18     0.036158573031615
 Sym= A
 Ene=     2.563215971
 Spin= Alpha
 Occup=    0.00000
   1     0.019727653955229
   2      -1.2866564895188
   3       3.6054909867635
   4    1.7040725247586e-17
   5    -1.5670449095549e-16
   6     -0.14735677730203
   7    -5.9293539223867e-17
   8    6.4836287166181e-17
   9       1.7147472621766
  10    -0.019727653955229
  11       1.2866564895188
  12      -3.6054909867635
  13    -5.0699910218178e-17
  14    1.615461625532e-17
  15     -0.14735677730202
  16    6.3051014857602e-17
  17    -2.5902757215122e-17
  18       1.7147472621766
