[Molden Format]
made by pyscf v[2.12.1]
[Atoms] (AU)
N   1   7     0.00000000000000     0.00000000000000     0.00000000000000
N   2   7     0.00000000000000     0.00000000000000     2.07435236693507
[GTO]
1 0
 s    6 1.00
              4173.511  0.0018347994430301
              627.4579   0.013994995751693
              142.9021   0.068586979179805
              40.23433    0.23224092950117
              12.82021    0.46906985760962
              4.390437    0.36045489058067
 s    3 1.00
             11.626358   -0.11496102288211
               2.71628   -0.16911803366165
              0.772218     1.1458522280731
 s    1 1.00
             0.2120313                   1
 p    3 1.00
             11.626358   0.067580023248036
               2.71628    0.32390711142648
              0.772218    0.74089525487354
 p    1 1.00
             0.2120313                   1

2 0
 s    6 1.00
              4173.511  0.0018347994430301
              627.4579   0.013994995751693
              142.9021   0.068586979179805
              40.23433    0.23224092950117
              12.82021    0.46906985760962
              4.390437    0.36045489058067
 s    3 1.00
             11.626358   -0.11496102288211
               2.71628   -0.16911803366165
              0.772218     1.1458522280731
 s    1 1.00
             0.2120313                   1
 p    3 1.00
             11.626358   0.067580023248036
               2.71628    0.32390711142648
              0.772218    0.74089525487354
 p    1 1.00
             0.2120313                   1

[5d]
[7f]
[9g]

[MO]
 Sym= A
 Ene=    -15.71798674
 Spin= Alpha
 Occup=    1.00000
   1      0.70407855908991
   2      0.01476938608188
   3    -0.0027357406710243
   4    -1.1707632477811e-16
   5    -6.9700782070241e-17
   6     0.001879536725102
   7    -2.8178516276694e-18
   8    -3.1197528692471e-20
   9    -0.0012379598476875
  10      0.70407855909555
  11     0.014769386082012
  12    -0.0027357406711443
  13    1.4247721904581e-18
  14    -6.0695226802124e-19
  15    -0.0018795367251243
  16    9.4777317805895e-20
  17    9.0627964305452e-19
  18    0.0012379598477369
 Sym= A
 Ene=    -15.71458026
 Spin= Alpha
 Occup=    1.00000
   1      0.70458423082818
   2     0.016610991729845
   3     -0.01544026572514
   4    2.403443365951e-16
   5    8.6230895423438e-18
   6    0.0028060369391955
   7    -5.3063511694051e-19
   8    2.9889089026191e-18
   9    -0.0063856887913833
  10     -0.70458423082254
  11    -0.016610991729727
  12     0.015440265725118
  13    -1.6832245377867e-18
  14    5.7572331996919e-19
  15    0.0028060369391804
  16    9.0614212786193e-19
  17    -1.9120145993584e-18
  18    -0.0063856887913733
 Sym= A
 Ene=    -1.527124963
 Spin= Alpha
 Occup=    1.00000
   1     -0.15712263413307
   2      0.36020626076214
   3      0.17239634856616
   4    -5.739095861152e-16
   5    2.3896891852139e-16
   6      0.24256872251716
   7    -1.4648729292857e-16
   8    4.649638575414e-17
   9     0.018946200318861
  10     -0.15712263413307
  11      0.36020626076214
  12      0.17239634856616
  13    -1.4133692465063e-16
  14    4.548285456006e-17
  15     -0.24256872251716
  16    -2.8563682222291e-17
  17    1.4636389259168e-17
  18    -0.018946200318856
 Sym= A
 Ene=    -0.775024488
 Spin= Alpha
 Occup=    1.00000
   1      0.14687395712875
   2     -0.34010966565427
   3     -0.56353794285215
   4    -3.6824413596899e-15
   5    1.1269769502747e-15
   6      0.20113905334687
   7    -1.7018783379816e-15
   8    5.2388075064829e-16
   9     0.032460550952106
  10     -0.14687395712875
  11      0.34010966565427
  12      0.56353794285216
  13    -2.5098413061025e-15
  14    7.8057286849606e-16
  15       0.2011390533469
  16    -1.2540654983828e-15
  17    4.0617947247438e-16
  18     0.032460550952116
 Sym= A
 Ene=   -0.6295949509
 Spin= Alpha
 Occup=    1.00000
   1     0.058401569138677
   2    -0.084697661222658
   3     -0.33911833417358
   4     -2.4475194787e-14
   5    1.3040159525695e-14
   6      0.46751485760541
   7    -1.4145255479397e-14
   8    7.3768964756636e-15
   9      0.17883803662178
  10      0.05840156913867
  11    -0.084697661222636
  12      -0.3391183341736
  13    -2.3998383523142e-14
  14    1.2813062129969e-14
  15      -0.4675148576054
  16    -1.3683237507528e-14
  17    7.3000521906421e-15
  18     -0.17883803662174
 Sym= A
 Ene=   -0.6222058267
 Spin= Alpha
 Occup=    1.00000
   1    4.2833293256944e-15
   2    -7.2537385162297e-15
   3    -1.9322157761692e-14
   4      0.43632955334389
   5    -0.077350841018208
   6    2.8844791019415e-14
   7      0.25007436508238
   8    -0.044332230782845
   9    1.3368986409284e-14
  10    2.6081346309578e-15
  11    -1.6695905573073e-15
  12    -2.0867829006369e-14
  13      0.43632955334389
  14    -0.077350841018209
  15    -2.6572394991498e-14
  16      0.25007436508239
  17    -0.044332230782845
  18    -7.6649167298654e-15
 Sym= A
 Ene=   -0.6222058267
 Spin= Alpha
 Occup=    1.00000
   1    -1.2087318529349e-15
   2    1.8589862726149e-15
   3    6.2145850001334e-15
   4     0.077350841018209
   5      0.43632955334389
   6    -9.1172539090151e-15
   7     0.044332230782845
   8      0.25007436508238
   9    -3.9356195268599e-15
  10    -9.5045492174278e-16
  11    1.208072227707e-15
  12    6.8125970165533e-15
  13     0.077350841018209
  14      0.43632955334389
  15    8.7933150493363e-15
  16     0.044332230782845
  17      0.25007436508239
  18    2.9628410751621e-15
 Sym= A
 Ene=    0.1510116711
 Spin= Alpha
 Occup=    0.00000
   1    -2.9070629893064e-18
   2    -3.1492103106112e-16
   3     7.27517352684e-15
   4      0.44733177720132
   5    0.0067361106821426
   6    3.8633221719131e-16
   7      0.66926004289786
   8      0.01007800016422
   9    4.4100785370313e-15
  10    1.1712207855984e-16
  11    1.629462028498e-15
  12    -8.2223899219265e-15
  13     -0.44733177720131
  14    -0.0067361106821431
  15    -3.9133354336022e-16
  16     -0.66926004289786
  17     -0.01007800016422
  18    4.9801289815543e-15
 Sym= A
 Ene=    0.1510116711
 Spin= Alpha
 Occup=    0.00000
   1    2.5328305691717e-17
   2    7.1864376162372e-17
   3    -3.1159475419557e-15
   4    -0.0067361106821436
   5      0.44733177720132
   6    4.2798458660984e-17
   7     -0.01007800016422
   8      0.66926004289786
   9    -2.2407617317315e-15
  10    -3.5497577975508e-18
  11    -5.1261242814332e-16
  12    3.6469898042099e-15
  13    0.0067361106821432
  14     -0.44733177720132
  15    1.6203114361005e-16
  16      0.01007800016422
  17     -0.66926004289786
  18    -1.9562819956799e-15
 Sym= A
 Ene=    0.5893010782
 Spin= Alpha
 Occup=    0.00000
   1     -0.10096240468312
   2      0.19886006804957
   3       4.0879820216894
   4    3.2543213243917e-16
   5    -3.4342793847347e-17
   6     0.083806624241531
   7    -2.1492213964547e-15
   8    7.8631532415261e-16
   9        2.667234598852
  10      0.10096240468312
  11     -0.19886006804958
  12      -4.0879820216893
  13    3.2533663836974e-16
  14    -4.6497873140684e-17
  15      0.08380662424152
  16    8.4983103865788e-16
  17    -4.5707783360417e-16
  18        2.667234598852
 Sym= A
 Ene=    0.7862246287
 Spin= Alpha
 Occup=    0.00000
   1     -0.02054037194104
   2     -0.39139864205221
   3      0.04454959742031
   4    -2.8083806232609e-15
   5    -2.0411858033166e-15
   6     -0.46106425707698
   7    3.894890058661e-15
   8    2.4909200807876e-15
   9      0.99473705136232
  10    -0.020540371941039
  11      -0.3913986420522
  12     0.044549597420179
  13    -1.7264429403818e-15
  14    -1.1877226494709e-15
  15      0.46106425707697
  16    5.9847382840751e-16
  17    7.0897537050762e-16
  18     -0.99473705136224
 Sym= A
 Ene=    0.8476369101
 Spin= Alpha
 Occup=    0.00000
   1    -8.7401107584937e-18
   2    -2.0088648951412e-15
   3    6.9541331526306e-16
   4     0.050385534135243
   5      0.67380709392484
   6    -1.2201755631344e-15
   7    -0.046346166880419
   8     -0.61978852772361
   9    2.5781538617574e-15
  10    1.9977906956491e-17
  11    -2.5179109231655e-15
  12    1.5930225183193e-15
  13     0.050385534135242
  14      0.67380709392486
  15    6.9627442574854e-16
  16    -0.046346166880417
  17     -0.61978852772364
  18    -2.4952597656636e-15
 Sym= A
 Ene=    0.8476369101
 Spin= Alpha
 Occup=    0.00000
   1    -1.0928509191846e-16
   2    3.6135874026985e-16
   3    -8.3146798383542e-16
   4      0.67380709392484
   5    -0.050385534135241
   6    -2.2593895148327e-15
   7     -0.61978852772362
   8     0.046346166880416
   9    4.0984669108512e-15
  10    -2.7802791584767e-16
  11    3.0920115749762e-15
  12    -4.2410890450737e-15
  13      0.67380709392486
  14    -0.050385534135243
  15    2.3658895381801e-15
  16     -0.61978852772364
  17      0.04634616688042
  18    -3.9108083492502e-15
 Sym= A
 Ene=    0.9444760294
 Spin= Alpha
 Occup=    0.00000
   1    -0.048624333094434
   2       1.0317689922717
   3     -0.90557509151363
   4    2.9318155113614e-16
   5    1.2387010331852e-17
   6     -0.26542679829642
   7    -2.3175550109612e-15
   8    7.369398048374e-16
   9      0.17572180448015
  10    -0.048624333094433
  11       1.0317689922718
  12     -0.90557509151391
  13    -4.2104904508731e-15
  14    1.7700735427407e-15
  15       0.2654267982964
  16    5.6162300521629e-15
  17    -2.3573536524629e-15
  18        -0.17572180448
 Sym= A
 Ene=     1.010167069
 Spin= Alpha
 Occup=    0.00000
   1    8.4288847438249e-17
   2    -2.4301725445862e-16
   3    -1.1542135327952e-15
   4      -0.1175539802395
   5     -0.72661037761197
   6    3.398695697581e-16
   7      0.18337448554343
   8       1.1334520865534
   9    -1.8228083227417e-15
  10    6.5118256381863e-18
  11    -5.2629965054436e-16
  12    2.3777778956398e-15
  13       0.1175539802395
  14      0.72661037761195
  15    -9.2652242197033e-16
  16     -0.18337448554343
  17      -1.1334520865534
  18    2.5302907330056e-16
 Sym= A
 Ene=     1.010167069
 Spin= Alpha
 Occup=    0.00000
   1    -2.4432098336317e-16
   2    5.6056615711108e-15
   3    -6.9571287185531e-15
   4     -0.72661037761197
   5       0.1175539802395
   6    -5.6819192341579e-16
   7       1.1334520865534
   8     -0.18337448554343
   9    -1.6558138491066e-15
  10    -1.181037276168e-16
  11    1.9520729616893e-15
  12    9.8978658228383e-16
  13      0.72661037761196
  14     -0.11755398023949
  15    3.9075729662367e-16
  16      -1.1334520865534
  17      0.18337448554343
  18    -5.5578300956347e-16
 Sym= A
 Ene=     1.154471314
 Spin= Alpha
 Occup=    0.00000
   1     0.032521184974362
   2      0.37161926796861
   3      -2.1034008361806
   4    8.5763217662873e-16
   5    2.0221341632628e-16
   6     -0.87565535036239
   7    -9.84571677148e-16
   8    -2.5669400714298e-16
   9     -0.47432591279774
  10    -0.032521184974362
  11     -0.37161926796861
  12       2.1034008361806
  13    -2.3500636553079e-16
  14    -5.1854028322172e-16
  15     -0.87565535036239
  16    4.705271271486e-16
  17    5.9717392781366e-16
  18     -0.47432591279774
 Sym= A
 Ene=     1.571235377
 Spin= Alpha
 Occup=    0.00000
   1     0.033835616613363
   2        -1.36804024456
   3       5.5184746299879
   4    -1.7475977295524e-15
   5    1.625947924532e-16
   6     -0.46964374737826
   7    9.9885820244102e-16
   8    -5.9148435219515e-18
   9       2.5561291008084
  10     -0.03383561661336
  11         1.36804024456
  12      -5.5184746299878
  13    3.3590426211881e-16
  14    -5.7622226355682e-17
  15     -0.46964374737827
  16    -3.6817425111114e-16
  17    -4.5061092376665e-17
  18       2.5561291008084
