[Molden Format]
made by pyscf v[2.12.1]
[Atoms] (AU)
N   1   7     0.00000000000000     0.00000000000000     0.00000000000000
N   2   7     0.00000000000000     0.00000000000000     2.07435236693507
[GTO]
1 0
 s    9 1.00
                 45840  9.2710633559608e-05
                  6868  0.00072253830719825
                  1563   0.003777958317554
                 442.4   0.015651973483129
                 144.3   0.053556514469119
                 52.18    0.14792082356863
                 20.34    0.30701630165403
                 8.381     0.4007558217013
                 3.529    0.21932211954942
 s    9 1.00
                 45840  -5.7338677874064e-05
                  6868  -0.00045584248909881
                  1563  -0.0023623535284115
                 442.4  -0.0099711960822998
                 144.3  -0.034305730972053
                 52.18   -0.10145505663037
                 20.34   -0.22957546540607
                 8.381   -0.42064227475192
                 3.529   -0.33359642787131
 s    1 1.00
                 1.054                   1
 s    1 1.00
                0.4118                   1
 s    1 1.00
                0.1552                   1
 p    3 1.00
                 49.33   0.031126097368555
                 11.37    0.21355664346739
                 3.435    0.83836255894469
 p    1 1.00
                 1.182                   1
 p    1 1.00
                0.4173                   1
 p    1 1.00
                0.1428                   1
 d    1 1.00
                 2.837                   1
 d    1 1.00
                 0.968                   1
 d    1 1.00
                 0.335                   1
 f    1 1.00
                 2.027                   1
 f    1 1.00
                 0.685                   1
 g    1 1.00
                 1.427                   1

2 0
 s    9 1.00
                 45840  9.2710633559608e-05
                  6868  0.00072253830719825
                  1563   0.003777958317554
                 442.4   0.015651973483129
                 144.3   0.053556514469119
                 52.18    0.14792082356863
                 20.34    0.30701630165403
                 8.381     0.4007558217013
                 3.529    0.21932211954942
 s    9 1.00
                 45840  -5.7338677874064e-05
                  6868  -0.00045584248909881
                  1563  -0.0023623535284115
                 442.4  -0.0099711960822998
                 144.3  -0.034305730972053
                 52.18   -0.10145505663037
                 20.34   -0.22957546540607
                 8.381   -0.42064227475192
                 3.529   -0.33359642787131
 s    1 1.00
                 1.054                   1
 s    1 1.00
                0.4118                   1
 s    1 1.00
                0.1552                   1
 p    3 1.00
                 49.33   0.031126097368555
                 11.37    0.21355664346739
                 3.435    0.83836255894469
 p    1 1.00
                 1.182                   1
 p    1 1.00
                0.4173                   1
 p    1 1.00
                0.1428                   1
 d    1 1.00
                 2.837                   1
 d    1 1.00
                 0.968                   1
 d    1 1.00
                 0.335                   1
 f    1 1.00
                 2.027                   1
 f    1 1.00
                 0.685                   1
 g    1 1.00
                 1.427                   1

[5d]
[7f]
[9g]

[MO]
 Sym= A
 Ene=    -15.68208387
 Spin= Alpha
 Occup=    1.00000
   1      0.70161109859121
   2    0.00042102513205131
   3     0.012265500887151
   4    -0.0016525225539249
   5    0.00067493637066803
   6    1.1899422977726e-16
   7    1.006233546494e-16
   8    0.0011815919068122
   9    -1.5579540927036e-17
  10    1.7664980495677e-17
  11    7.9152654178686e-05
  12    3.7842957273247e-18
  13    2.4735136659794e-18
  14    0.00049445613282304
  15    -8.6996409762818e-18
  16    4.0153003754165e-18
  17    1.0117315111524e-05
  18    0.0001070445198909
  19    1.6304881737401e-18
  20    -5.5553540519547e-19
  21    -3.8674608415013e-19
  22    1.2541897861195e-19
  23    0.00045759742055611
  24    -5.1713866611755e-18
  25    4.2298651118802e-18
  26    -3.5591198065919e-18
  27    -4.42311716892e-19
  28    0.00010177564751206
  29    -3.2439819204526e-18
  30    4.4413143713735e-18
  31    1.9528654462648e-18
  32    2.0199270959485e-19
  33    0.00017358683050855
  34    -6.4511481095331e-19
  35    7.9289137679144e-19
  36    -1.854160516477e-19
  37    -2.1085879413436e-19
  38    -3.3365786872449e-20
  39    1.1146802959765e-19
  40    9.0561736020892e-05
  41    -2.2011686645577e-18
  42    2.7495042653429e-18
  43    7.7228374032069e-19
  44    -1.0663423256534e-19
  45    1.8752606868408e-20
  46    1.8875431707094e-19
  47    0.0001378964643875
  48    -6.7565840459613e-19
  49    1.3145372090474e-18
  50    2.2829678830893e-19
  51    7.6809393386402e-20
  52    -6.9697369623299e-20
  53    -5.5451485155806e-20
  54    6.7933078805709e-18
  55    7.9956179645502e-21
  56      0.70161109857339
  57    0.00042102513194298
  58     0.012265500886827
  59    -0.0016525225540428
  60    0.00067493637055117
  61    3.4445031674963e-18
  62    4.0788543084015e-18
  63    -0.0011815919067935
  64    -5.6323641109498e-18
  65    6.6313068070757e-21
  66    -7.9152654146099e-05
  67    7.4812325181484e-18
  68    -4.3008583135744e-18
  69    -0.00049445613268711
  70    -1.100766214754e-18
  71    -3.3038137479503e-18
  72    -1.0117315082575e-05
  73    0.00010704451989258
  74    8.808963724444e-19
  75    -4.2101677928094e-19
  76    1.4604268527818e-19
  77    -2.7541492474025e-19
  78    0.00045759742050141
  79    -3.9117730811133e-18
  80    3.199240215414e-18
  81    1.8004516129052e-18
  82    6.6522259577696e-19
  83    0.00010177564747202
  84    -3.8913439690427e-18
  85    6.0608527194522e-18
  86    -1.252982642082e-18
  87     1.40243103336e-20
  88    -0.00017358683050565
  89    -5.7634091984607e-20
  90    -2.2301012227788e-19
  91    -3.3080008601201e-19
  92    -8.4841197088308e-20
  93    -1.0846202721588e-19
  94    1.1041487194648e-19
  95    -9.0561735984305e-05
  96    3.5275430612087e-18
  97    -2.8476036836002e-18
  98    1.0003901163822e-18
  99    -2.6936430696187e-19
 100    1.2536082292793e-19
 101    -1.2281392558461e-21
 102    0.0001378964643759
 103    -1.7031078835453e-18
 104    1.929059101694e-18
 105    -3.2016005076364e-19
 106    -2.7316546834427e-20
 107    -1.8214875013135e-20
 108    5.165310572316e-20
 109    7.2330067565866e-18
 110    5.4470134999984e-21
 Sym= A
 Ene=    -15.67854263
 Spin= Alpha
 Occup=    1.00000
   1      -0.7019285824296
   2    -0.00025029203532346
   3    -0.012835974607792
   4    0.0050570633557247
   5    -0.0016039332939161
   6    2.3047635264203e-16
   7    7.2862088461727e-17
   8    -0.001083690433877
   9    -1.7003856744355e-17
  10    1.8244921914281e-17
  11    0.00030203005615496
  12     6.63247492364e-18
  13    1.1470221743634e-18
  14    0.0017899979081555
  15    -8.631824972596e-18
  16    4.4619522242041e-18
  17    -0.00035069785590903
  18    -0.00016417851209091
  19    2.4689555449064e-19
  20    -4.4961806260044e-19
  21    4.224945641709e-19
  22    -8.278957397479e-20
  23    0.00015046378919746
  24    -3.0075046766113e-18
  25    3.809015490824e-18
  26    3.1535674583435e-18
  27    1.5372507286173e-19
  28    0.0004337835892938
  29    -2.7961986278338e-18
  30    4.4036386369115e-18
  31    -4.0459780180226e-19
  32    -9.6429464580748e-20
  33    7.2300406554308e-06
  34    -3.8867738518636e-19
  35    4.4630642094287e-19
  36    1.6450651304037e-19
  37    1.7365601900688e-19
  38    1.2779943081837e-20
  39    -9.6453167403127e-20
  40    0.00011689950466408
  41    -1.8006988614653e-18
  42    2.9622401301851e-18
  43    5.1880510395164e-21
  44    -4.2666629613055e-20
  45    -2.7629390853888e-20
  46    -1.0338419158954e-19
  47    6.3428160487003e-05
  48    -6.3095238801471e-19
  49    1.0131835472228e-18
  50    7.9250168365651e-20
  51    -1.2722005546512e-19
  52    2.2206748151357e-20
  53    5.7830704204453e-20
  54    -7.20517466937e-18
  55    -1.020549094204e-20
  56       0.7019285824472
  57    0.0002502920352022
  58     0.012835974607996
  59    -0.0050570633557899
  60    0.0016039332939682
  61    3.3300225336557e-18
  62    4.1759009940776e-18
  63    -0.0010836904339133
  64    -5.5406625526396e-18
  65    -2.3388495115827e-20
  66    0.00030203005622082
  67    5.8608963250288e-18
  68    -4.1598562283296e-18
  69    0.0017899979080646
  70    -1.4130802274024e-18
  71    -3.2411343565347e-18
  72    -0.00035069785594164
  73    0.00016417851208204
  74    8.3984129804157e-19
  75    -5.1865418049242e-19
  76    1.4987870991851e-19
  77    -2.4369271128125e-19
  78    -0.0001504637891721
  79    -3.5293663803062e-18
  80    3.5085764241953e-18
  81    1.9914386852631e-18
  82    5.2899306013841e-19
  83    -0.00043378358921868
  84    -2.8920296108228e-18
  85    5.823317252746e-18
  86    8.6096821293717e-20
  87    -9.3075789267341e-21
  88    7.2300406588252e-06
  89    -6.4981525737653e-20
  90    -2.8663236124553e-19
  91    -2.1073435571904e-19
  92    -9.4744774071945e-20
  93    -9.8024545951593e-20
  94    1.004715641497e-19
  95    0.00011689950461308
  96    3.1669046827702e-18
  97    -3.0643797882774e-18
  98    -2.3847500343048e-20
  99    -1.3233472012303e-19
 100    8.1151874879033e-20
 101    8.5082864521652e-21
 102    -6.3428160471572e-05
 103    -1.8060722808452e-18
 104    2.1385912814374e-18
 105    -1.5872787498143e-19
 106    -3.1411352147284e-20
 107    -1.0965150913949e-20
 108    2.8839732544675e-20
 109    7.5862326328999e-18
 110    9.4399512452382e-21
 Sym= A
 Ene=    -1.470187801
 Spin= Alpha
 Occup=    1.00000
   1    -0.0062072672493009
   2      0.23408139438548
   3       0.1856493218023
   4      0.30384224470902
   5     0.068908451296743
   6    8.195359027366e-17
   7    -7.9008938339069e-17
   8     0.060285910189441
   9    4.6570027525797e-16
  10    -2.0215021545419e-16
  11      0.11647167276133
  12    -6.2729561435623e-17
  13    -3.8710236980756e-17
  14     0.098494501889821
  15    1.1515195524946e-17
  16    -1.1326707240259e-17
  17     0.011424735991537
  18    0.0067943828956456
  19    5.6689250282723e-19
  20    4.1691085430107e-18
  21    -5.1555765435355e-18
  22    1.7631192254729e-18
  23     0.022909066299802
  24    -1.8235141496423e-18
  25    -3.6572686363765e-18
  26    -3.0614303953347e-17
  27    -9.1985307032317e-18
  28     0.016200418377919
  29    3.0278101836215e-17
  30    2.9344829817464e-18
  31    7.758874809773e-17
  32    9.1103910395402e-18
  33    0.0025765491441203
  34    2.3422046562015e-19
  35    -8.0749603817544e-19
  36    1.6731659414041e-18
  37    -9.0662067986409e-19
  38    -8.4779321599808e-19
  39    4.4766975610461e-19
  40    0.0065971084614905
  41    1.0007994554899e-17
  42    -8.2008356203205e-18
  43    5.429660577359e-17
  44    -2.7839448590177e-18
  45    9.2222704386865e-19
  46    4.789858011555e-18
  47    0.0011756695881618
  48    2.3477829242549e-18
  49    -3.673902395758e-18
  50    2.6948749226869e-17
  51    9.9989742004316e-19
  52    -1.0194124824816e-18
  53    -9.9075719884437e-19
  54    -1.2221954769157e-16
  55    -2.4658993824218e-20
  56    -0.0062072672493037
  57      0.23408139438547
  58      0.18564932180203
  59      0.30384224471078
  60     0.068908451298538
  61    2.8773232200133e-17
  62    -3.48621194299e-17
  63    -0.060285910189426
  64    6.8020370290201e-17
  65    -4.4029693202295e-17
  66     -0.11647167276137
  67    5.9673396478054e-17
  68    -5.6697468336891e-17
  69    -0.098494501891275
  70    2.234756731349e-17
  71    -3.9332219797712e-17
  72    -0.011424735992148
  73    0.0067943828956211
  74    -4.9817185062725e-18
  75    4.7317152655384e-18
  76    7.7276821114688e-18
  77    2.6015994954429e-20
  78     0.022909066300034
  79    -1.7117878683214e-17
  80    -2.2552816402316e-17
  81    -4.4568158211676e-18
  82    2.3736650544565e-18
  83     0.016200418378386
  84     1.22005554642e-17
  85    2.7751467907666e-18
  86    -4.4551979433693e-17
  87    8.7892451159871e-18
  88    -0.002576549144133
  89    3.9471214527333e-18
  90    2.0557566848504e-18
  91    -4.0625726952408e-18
  92    1.1148884065401e-18
  93    -7.6450685825617e-19
  94    3.9753379760547e-19
  95    -0.0065971084616187
  96    -2.2405689579524e-18
  97    2.0812057928089e-17
  98    6.1028572501722e-17
  99    -5.0039372263497e-18
 100    3.2989577397946e-18
 101    6.3351649255124e-20
 102    0.0011756695881818
 103    2.0253816553481e-18
 104    -9.15385215712e-18
 105    -3.7295389493546e-17
 106    -1.0420698970519e-18
 107    -1.5756776782023e-19
 108    9.7123470849373e-19
 109    -9.8797836578447e-17
 110    -7.6091554257775e-20
 Sym= A
 Ene=   -0.7784405401
 Spin= Alpha
 Occup=    1.00000
   1    -0.002048011174119
   2     -0.22638165292161
   3      -0.1829681215137
   4     -0.38905136774287
   5     -0.23157279609466
   6    -2.3044190644424e-17
   7    -2.229797986144e-16
   8       0.0579284571693
   9    8.6653149930268e-16
  10    -3.086327258234e-16
  11      0.10872181157925
  12    -1.499314444578e-16
  13    -3.7943527057208e-16
  14      0.13641027496843
  15    -1.928430995999e-16
  16    -2.2902468155029e-16
  17     0.051942002923909
  18    0.0013664665713829
  19    -1.6152371741356e-17
  20    1.9649738501897e-17
  21    9.8920900069822e-18
  22    3.6215573566381e-17
  23    0.0055180772378586
  24    -1.3013368703946e-17
  25    -3.5658327372386e-17
  26    -2.6676309300028e-18
  27    8.3545813705491e-18
  28    0.0058685442598804
  29    1.0641766835616e-16
  30    -1.7571440911819e-18
  31    1.0654143402307e-17
  32    1.7469690563831e-18
  33    0.00012430835545653
  34    -2.2885780866659e-18
  35    -8.3972000537989e-18
  36    3.8860946465339e-18
  37    1.0973580044473e-18
  38    2.2824605947178e-19
  39    -2.5965816319809e-19
  40    -0.00011249521357593
  41    2.2651291492937e-17
  42    -4.6568760888359e-18
  43    -2.3913698050797e-17
  44    4.1815244323545e-18
  45    2.6637049950921e-19
  46    -1.8513852567777e-18
  47    6.4152455291181e-05
  48    2.7484904073574e-19
  49    -9.2508115287572e-18
  50    -2.4433638669363e-17
  51    -2.5286810223615e-19
  52    -1.5714421374834e-20
  53    1.787040585973e-19
  54    1.6474478634736e-16
  55    4.4291830665684e-20
  56    0.0020480111741295
  57      0.22638165292162
  58      0.18296812151374
  59      0.38905136774301
  60      0.23157279609454
  61    -7.2032493846216e-17
  62    -1.1643976752498e-16
  63     0.057928457169287
  64    -1.0951558809992e-16
  65    -2.0007129682733e-16
  66      0.10872181157915
  67    -2.3215658239955e-16
  68    -2.7659802204641e-16
  69      0.13641027496848
  70    -2.1382440807559e-16
  71    -1.5273267744536e-16
  72     0.051942002923981
  73    -0.0013664665713762
  74    2.6633917486679e-18
  75    1.6983403668984e-17
  76    1.5413145770794e-18
  77    -1.4238705321112e-19
  78    -0.0055180772378548
  79    -3.8540653502423e-18
  80    2.2530489747176e-17
  81    1.7945959264704e-17
  82    -5.8843564914528e-18
  83    -0.0058685442600104
  84    1.2677843337256e-16
  85    7.9866121777384e-17
  86    3.8409408944136e-17
  87    -3.7758053285086e-18
  88    0.00012430835544883
  89    8.2998417816362e-18
  90    -8.9344442279576e-18
  91    -3.2548157873606e-18
  92    -1.0643673667704e-18
  93    -4.3732979468551e-19
  94    3.9713954839693e-19
  95    -0.00011249521352175
  96    -7.8293685352175e-18
  97    8.5088712358902e-18
  98    -3.8464805152588e-17
  99    -2.2240365787161e-18
 100    1.2699560573757e-18
 101    -3.7163136210073e-19
 102    -6.4152455300546e-05
 103    3.0897695888738e-18
 104    -8.7257783736117e-18
 105    3.8522977411948e-17
 106    2.5121418666333e-19
 107    -9.6760360967494e-20
 108    1.0927892947918e-19
 109    -1.6542271411199e-16
 110    6.9309288163863e-20
 Sym= A
 Ene=    -0.633658862
 Spin= Alpha
 Occup=    1.00000
   1    -0.0019822058386808
   2    -0.081487674986892
   3    -0.063225636939591
   4     -0.16321334465404
   5     -0.22459923023153
   6    -2.3837692625117e-15
   7    1.5752377615975e-15
   8      0.12359857594787
   9    -4.0382919400603e-15
  10    3.1847190304257e-15
  11      0.24039733726275
  12    -6.6812277929678e-15
  13    4.1467189026015e-15
  14      0.25556484871818
  15    -6.1149922516133e-16
  16    1.9943934012228e-15
  17      0.10264255630561
  18    0.0060243415687362
  19    -1.0141109612098e-16
  20    -3.0454224795227e-17
  21    2.3462638572769e-17
  22    9.7472812340925e-17
  23      0.02022885695104
  24    -4.5591996921877e-16
  25    3.017983708417e-16
  26    1.3697821885415e-17
  27    -6.2107806636308e-17
  28    0.0079266499880128
  29    -3.6605323166536e-16
  30    4.702989710894e-16
  31    -3.0518689826686e-17
  32    -1.9464083905889e-17
  33    0.0023613731714972
  34    -5.8866269299696e-17
  35    3.638467915672e-17
  36    9.7208700626434e-18
  37    -1.0607318557392e-19
  38    1.6676759275692e-19
  39    -1.4027454292163e-19
  40    0.0024815739575658
  41    -8.5509132718458e-17
  42    1.4616039088718e-16
  43    -2.7002171815214e-18
  44    -3.3612994581039e-18
  45    -3.7928108470702e-19
  46    -1.9960783586812e-18
  47    0.0014605854402205
  48    -3.6851643276302e-17
  49    2.5661101824252e-17
  50    1.1910479532568e-17
  51    -2.2603401396576e-18
  52    -2.3993239131705e-19
  53    -3.7051675396723e-19
  54    9.7309585863238e-17
  55    1.2635946385529e-19
  56    -0.0019822058386942
  57    -0.081487674986942
  58    -0.063225636939566
  59     -0.16321334465466
  60     -0.22459923023383
  61    -1.9040028914803e-15
  62    1.4052573467033e-15
  63     -0.12359857594788
  64    -3.6155360025116e-15
  65    2.7522526015045e-15
  66     -0.24039733726277
  67    -4.8669422402373e-15
  68    3.2015050054912e-15
  69     -0.25556484871752
  70    -1.8431919833257e-15
  71    1.5404565570808e-15
  72     -0.10264255630477
  73    0.0060243415687414
  74    1.2096612594492e-16
  75    -9.1133985865315e-17
  76    -2.3899302222448e-19
  77    -1.4044835868613e-18
  78     0.020228856950979
  79    4.8465410155853e-16
  80    -3.6843412818331e-16
  81    -1.1659286375206e-17
  82    9.3617704779925e-18
  83    0.0079266499877402
  84    6.7716621862357e-16
  85    -2.3720152318242e-16
  86    1.9791397271621e-17
  87    -1.1966746852545e-17
  88    -0.0023613731714968
  89    -6.0449087859213e-17
  90    5.6787869566441e-17
  91    8.0887722593634e-18
  92     3.94466377327e-18
  93    2.8056511937908e-19
  94    -2.4237077318995e-19
  95    -0.0024815739575156
  96    -1.5035096662015e-16
  97    5.7211897463687e-17
  98    9.8022153048056e-19
  99    -3.4434496625766e-18
 100    -1.1194060460413e-18
 101    -4.0343697955502e-19
 102    0.0014605854402124
 103    4.0058162865072e-17
 104    -2.5557422573057e-17
 105    9.8406225572062e-18
 106    -7.7478210945446e-19
 107    5.154996930545e-20
 108    2.258017857758e-19
 109    1.3931845804894e-16
 110    -3.3329579337778e-20
 Sym= A
 Ene=   -0.6132563742
 Spin= Alpha
 Occup=    1.00000
   1    -5.7989563605802e-16
   2    -2.5020967669575e-15
   3    -1.2305973666517e-15
   4    -9.5224703337788e-15
   5    -1.2343788136111e-14
   6     0.080061190215002
   7    -0.078762924248457
   8    2.5493893831505e-15
   9      0.15445108294898
  10        -0.15194651633
  11    4.4733107653287e-15
  12      0.19575122353804
  13     -0.19257693708608
  14    3.0482663279361e-15
  15     0.088721919670349
  16    -0.087283211995814
  17    -1.569328402053e-15
  18    5.2999442555455e-16
  19    0.0044369431684899
  20    -0.0043649940468771
  21    3.5144667447873e-16
  22    4.985228471839e-17
  23    -8.8155121698626e-16
  24     0.019516299529966
  25    -0.019199824751061
  26    -4.9841094372852e-16
  27    -8.9673261829455e-17
  28    9.2344292181783e-17
  29     0.020190861372491
  30     -0.01986344795178
  31    6.4756236087563e-16
  32    5.753798493352e-16
  33    -1.7408444355971e-16
  34    0.0022502680660401
  35    -0.0022137778959848
  36    -1.4821295526803e-18
  37    1.2440165276549e-16
  38    -5.7045503913883e-17
  39     4.21956908557e-17
  40    1.2005775436551e-16
  41    0.0050956259607134
  42    -0.0050129956907308
  43    -9.9957800038979e-17
  44    4.1455900166431e-17
  45    3.1393777424533e-17
  46    3.2050266992349e-17
  47    -4.4372423024799e-17
  48    0.0013708810493022
  49    -0.0013486509499791
  50    -9.9850059398877e-17
  51    9.6112448717849e-17
  52    2.6991135546206e-17
  53    1.4711324796943e-17
  54    1.010892846994e-16
  55    -1.4537893385799e-17
  56    3.8840007633983e-16
  57    -1.7487802723667e-15
  58    -2.1861111715141e-15
  59    -2.2568564698686e-15
  60    5.5302319639572e-15
  61        0.080061190215
  62    -0.078762924248454
  63    -2.8644797904347e-15
  64      0.15445108294898
  65        -0.15194651633
  66    -6.0027061141243e-15
  67      0.19575122353806
  68     -0.19257693708606
  69    -9.1815239593427e-15
  70     0.088721919670366
  71    -0.087283211995834
  72    -6.5526266205929e-15
  73    4.5202826144217e-16
  74    -0.0044369431684892
  75    0.0043649940468787
  76    -1.382328793358e-16
  77    1.4958752504979e-17
  78    7.5877410446126e-16
  79    -0.019516299529969
  80     0.019199824751053
  81    1.1743373442372e-16
  82    -1.0834583120258e-16
  83    2.5705877184334e-15
  84     -0.02019086137251
  85     0.019863447951782
  86    4.6035464817536e-17
  87    1.940582956405e-16
  88    5.1312152707388e-17
  89    0.0022502680660398
  90    -0.0022137778959847
  91    -5.6124740794814e-17
  92    5.9851587725198e-17
  93    -4.4890466628709e-17
  94    7.6851739306615e-17
  95    -9.404888947052e-16
  96    0.0050956259607201
  97    -0.0050129956907257
  98    -8.3912859112052e-17
  99    9.3418672795945e-17
 100    5.9451692399656e-17
 101    -2.7866588591713e-17
 102    -4.4282300815362e-32
 103    -0.0013708810493032
 104    0.0013486509499776
 105    5.4851577908704e-17
 106    -1.1187443826545e-16
 107    -2.3645693448997e-17
 108    -2.8572041660701e-17
 109    1.345861165895e-16
 110    -2.2936696040729e-18
 Sym= A
 Ene=   -0.6132563742
 Spin= Alpha
 Occup=    1.00000
   1    3.4452981655792e-16
   2    -1.0990963171694e-16
   3    -5.1906379450213e-16
   4    1.1825629519635e-15
   5    -6.033666698147e-15
   6     0.078762924248457
   7     0.080061190215003
   8    5.1127688977954e-16
   9         0.15194651633
  10      0.15445108294899
  11    6.0058732774772e-16
  12      0.19257693708606
  13      0.19575122353806
  14    2.2628540206222e-15
  15     0.087283211995816
  16     0.088721919670343
  17    -2.9191143194239e-15
  18    -5.1090861956813e-17
  19    0.0043649940468782
  20    0.0044369431684889
  21    1.237138891539e-16
  22    6.9558170194357e-17
  23    6.5193130539946e-16
  24     0.019199824751055
  25     0.019516299529971
  26    -3.6911226797956e-16
  27    -7.5720695283807e-17
  28    -7.2517083334085e-16
  29     0.019863447951771
  30     0.020190861372499
  31    9.2269608806826e-16
  32    -5.524095602585e-17
  33    2.8252663536851e-16
  34    0.0022137778959849
  35    0.0022502680660401
  36    1.4629378602461e-16
  37    8.8661568048123e-18
  38    1.9058140984207e-17
  39    -3.4534583540796e-17
  40    1.8327833389193e-16
  41    0.0050129956907255
  42    0.0050956259607184
  43    -1.0268713886541e-16
  44    -2.7602650211987e-16
  45    5.1847536786439e-17
  46    -2.278842267879e-16
  47    7.4437866813699e-17
  48    0.0013486509499781
  49    0.0013708810493031
  50    -1.3733937375213e-16
  51    -9.8255507177469e-17
  52    -5.6888927054055e-17
  53    4.316745388601e-17
  54    -2.3549401345703e-18
  55    -1.5116869687114e-17
  56    7.3246726441764e-16
  57    9.0284652149002e-16
  58    4.7761433247158e-16
  59    -6.2956536838332e-16
  60    3.8407280226812e-15
  61     0.078762924248455
  62     0.080061190214999
  63    -4.1098828823229e-16
  64         0.15194651633
  65      0.15445108294899
  66    -5.9469622235161e-16
  67      0.19257693708608
  68      0.19575122353804
  69    5.1256850631701e-16
  70     0.087283211995833
  71     0.088721919670368
  72    -1.8370931670013e-15
  73    3.7645207583453e-17
  74    -0.0043649940468778
  75    -0.0044369431684901
  76    1.3455097888465e-16
  77    -1.6015384045576e-16
  78    -4.5539061122803e-16
  79    -0.019199824751058
  80    -0.019516299529964
  81    2.3392316252303e-17
  82    3.2764299207112e-16
  83    1.8103352080833e-16
  84    -0.019863447951791
  85    -0.020190861372503
  86    3.8684916131459e-16
  87    -1.6620840431921e-16
  88    8.5553230780944e-17
  89    0.0022137778959849
  90    0.0022502680660398
  91    1.470583842263e-16
  92    6.3828158091324e-17
  93    -1.4323178464684e-17
  94    -3.003115917199e-16
  95    2.9478712565613e-16
  96    0.0050129956907318
  97    0.0050956259607141
  98    -1.4317396785547e-16
  99    -9.2204047957806e-17
 100    2.9331756753615e-18
 101    2.7626907861962e-16
 102    -1.0579178405496e-16
 103    -0.0013486509499793
 104    -0.0013708810493018
 105    3.5454639727897e-17
 106    8.3825740412069e-17
 107    1.9616661275726e-17
 108    1.5585864644003e-17
 109    -1.9048276985046e-17
 110    7.6391792475488e-18
 Sym= A
 Ene=     0.153860876
 Spin= Alpha
 Occup=    0.00000
   1    3.7789915344682e-16
   2    1.1960589795267e-15
   3    -8.8885873631444e-16
   4    1.5244686133557e-14
   5    5.5042868477557e-14
   6    -0.070385919831548
   7     0.078847876557015
   8    -5.100124412212e-16
   9     -0.14041302976341
  10      0.15729380626521
  11    5.0711565652335e-16
  12     -0.21836496488634
  13      0.24461730182598
  14    9.2860791882297e-15
  15     -0.53267033997302
  16       0.5967091900239
  17    2.6916136876921e-14
  18    -1.0450121670012e-16
  19    0.0025740225875088
  20    -0.0028834774869827
  21    -1.1234822386602e-16
  22    -1.4620415168169e-16
  23    1.0590794713765e-15
  24    0.0082760530597686
  25    -0.0092710191412989
  26    5.5881624142082e-17
  27    7.4634551223566e-17
  28    4.5260988458467e-15
  29    -0.051017232177021
  30     0.057150640846894
  31    -1.2100122601518e-16
  32    1.0781726077946e-16
  33    -3.6173703766119e-17
  34     0.002049404656843
  35    -0.0022957887853823
  36    -1.5692757955512e-16
  37    1.5607126678315e-16
  38    -9.8126966285621e-18
  39    1.5907979344953e-16
  40    4.6021333398333e-16
  41    -0.011557673185858
  42     0.012947163165941
  43    1.2888958840942e-16
  44    -7.4699370975719e-16
  45    -3.3344672252089e-16
  46    -2.8963482346921e-16
  47    -1.0944400586901e-16
  48    -0.0015144655205279
  49    0.0016965380391154
  50    -4.4533403965197e-17
  51    3.1035292786398e-18
  52    9.4389394187538e-18
  53    1.838214794385e-18
  54    -1.8961160122706e-17
  55    1.0235344881916e-19
  56    -7.5753254675218e-17
  57    4.2016204236943e-17
  58    1.8852723536793e-15
  59    -7.9584679590841e-15
  60    -6.1066328773313e-14
  61     0.070385919831549
  62    -0.078847876557014
  63    3.0968753310739e-16
  64      0.14041302976341
  65     -0.15729380626521
  66    -5.5741127417587e-17
  67      0.21836496488636
  68       -0.244617301826
  69    1.2734165895189e-14
  70        0.532670339973
  71     -0.59670919002388
  72    2.5630234323228e-14
  73    3.1736093101682e-16
  74    0.0025740225875084
  75    -0.002883477486982
  76    4.2797508388268e-17
  77    6.6824849883127e-17
  78    -1.1872815173745e-15
  79    0.0082760530597673
  80    -0.0092710191412994
  81    -4.1060177939545e-18
  82    -3.1102029263693e-17
  83    -5.6087905568855e-15
  84    -0.051017232177024
  85       0.0571506408469
  86    4.0301818990397e-17
  87    -6.6847566408925e-16
  88    -3.5709885040538e-17
  89    -0.0020494046568425
  90    0.0022957887853819
  91    -1.4008145862791e-16
  92    -9.0618260980489e-17
  93    -5.9240140400552e-17
  94    -5.639449466294e-17
  95    9.6809669001292e-16
  96     0.011557673185856
  97     -0.01294716316594
  98    1.1594900337326e-16
  99    2.2049038586385e-16
 100    7.7670820816535e-17
 101    7.9773637378633e-17
 102    -2.1158356810992e-17
 103    -0.0015144655205281
 104    0.0016965380391155
 105     6.80572465681e-17
 106    3.134566566895e-17
 107    -1.0475339312381e-17
 108    1.2784121403965e-17
 109    5.7209698885576e-17
 110    -4.4441355671863e-19
 Sym= A
 Ene=     0.153860876
 Spin= Alpha
 Occup=    0.00000
   1    3.8730219436208e-16
   2    3.4028972430029e-16
   3    4.1791382942147e-16
   4    9.0897452695804e-16
   5    -1.6801130120259e-14
   6     0.078847876557013
   7      0.07038591983155
   8    7.9833214045116e-17
   9       0.1572938062652
  10      0.14041302976342
  11    3.3415760583335e-16
  12      0.24461730182601
  13      0.21836496488632
  14    -1.2321297620079e-15
  15      0.59670919002395
  16      0.53267033997296
  17    -9.7824096039813e-15
  18    -9.9039203889671e-17
  19    -0.0028834774869829
  20    -0.0025740225875082
  21    -3.3278921128121e-17
  22    1.0306072098392e-16
  23    3.8446126300746e-16
  24    -0.0092710191412952
  25    -0.0082760530597724
  26    -2.4234100841051e-16
  27    -1.1174241267651e-16
  28    -2.9285505219046e-15
  29     0.057150640846936
  30     0.051017232176982
  31    -3.5772578370637e-16
  32    7.7027534433507e-16
  33    4.4178863484122e-17
  34    -0.0022957887853829
  35    -0.0020494046568424
  36    -1.1066496497907e-16
  37    1.1209463869593e-16
  38    -2.0592551245082e-16
  39    1.5184780285529e-17
  40    -2.3978481458432e-16
  41     0.012947163165953
  42     0.011557673185847
  43    1.0984049725472e-16
  44    -1.8338405173859e-16
  45    4.0558356329616e-16