[Molden Format]
made by pyscf v[2.12.1]
[Atoms] (AU)
N   1   7     0.00000000000000     0.00000000000000     0.00000000000000
N   2   7     0.00000000000000     0.00000000000000     2.07435236693507
[GTO]
1 0
 s    3 1.00
             99.106169    0.15432897032795
             18.052312    0.53532814113758
             4.8856602    0.44463454094486
 s    3 1.00
             3.7804559  -0.099967228443697
             0.8784966    0.39951282378033
             0.2857144    0.70011545910051
 p    3 1.00
             3.7804559    0.15591626853622
             0.8784966    0.60768371429493
             0.2857144    0.39195738632021

2 0
 s    3 1.00
             99.106169    0.15432897032795
             18.052312    0.53532814113758
             4.8856602    0.44463454094486
 s    3 1.00
             3.7804559  -0.099967228443697
             0.8784966    0.39951282378033
             0.2857144    0.70011545910051
 p    3 1.00
             3.7804559    0.15591626853622
             0.8784966    0.60768371429493
             0.2857144    0.39195738632021

[5d]
[7f]
[9g]

[MO]
 Sym= A
 Ene=    -15.51799774
 Spin= Alpha
 Occup=    1.00000
   1      0.70307431560929
   2     0.012840768421125
   3    -6.8892917039716e-18
   4    -2.8882569775198e-18
   5    0.0020845866119552
   6      0.70307431560095
   7     0.012840768420806
   8    -5.7930907468318e-19
   9    4.8113083505936e-18
  10    -0.0020845866118383
 Sym= A
 Ene=    -15.51605838
 Spin= Alpha
 Occup=    1.00000
   1     -0.70284787390556
   2    -0.026898969421913
   3    1.4018302305311e-17
   4    2.186201499823e-16
   5    -0.0098556111326924
   6      0.70284787391391
   7     0.026898969422065
   8    -5.7761239940109e-19
   9    4.9031102851249e-18
  10    -0.0098556111327171
 Sym= A
 Ene=    -1.442647492
 Spin= Alpha
 Occup=    1.00000
   1     -0.17580079507652
   2       0.4888582834834
   3    -2.0573392847948e-16
   4    -2.2929469346476e-17
   5      0.24011012225955
   6     -0.17580079507651
   7       0.4888582834834
   8    -6.6226075576634e-17
   9    9.3300497843558e-18
  10     -0.24011012225955
 Sym= A
 Ene=   -0.7225181997
 Spin= Alpha
 Occup=    1.00000
   1      -0.1710744924348
   2      0.74205000605253
   3    1.614620760793e-15
   4    -6.2945803489749e-16
   5     -0.26417613915389
   6       0.1710744924348
   7     -0.74205000605252
   8    1.0968302746037e-15
   9    -4.8928085535484e-16
  10     -0.26417613915386
 Sym= A
 Ene=   -0.5729846517
 Spin= Alpha
 Occup=    1.00000
   1    2.1945487053323e-16
   2    -7.2681868496678e-16
   3      0.48866374448531
   4     -0.38950373568077
   5    -7.0182458845267e-16
   6    -4.8037594316602e-16
   7    2.4148444573828e-15
   8       0.4886637444853
   9     -0.38950373568077
  10     1.80872531059e-15
 Sym= A
 Ene=   -0.5729846517
 Spin= Alpha
 Occup=    1.00000
   1    -2.7902318965488e-16
   2    1.7958505525275e-15
   3      0.38950373568077
   4      0.48866374448531
   5    -2.8246228570223e-15
   6    -5.3823554648378e-16
   7    2.5561027108884e-15
   8      0.38950373568077
   9       0.4886637444853
  10    3.3788667180175e-15
 Sym= A
 Ene=   -0.5394438055
 Spin= Alpha
 Occup=    1.00000
   1    -0.069019055084067
   2      0.40809634573128
   3    -3.0083946335387e-15
   4    -1.8902414542176e-15
   5     -0.60379816393479
   6    -0.069019055084075
   7      0.40809634573131
   8    -3.1565601979776e-15
   9    -2.0429629683507e-15
  10       0.6037981639348
 Sym= A
 Ene=    0.2812280889
 Spin= Alpha
 Occup=    0.00000
   1    -4.8402926414792e-17
   2    1.9467898600538e-16
   3      -0.6458646604555
   4      0.52695498218434
   5    9.5899979466115e-17
   6    3.335508481599e-17
   7    -1.8744696916681e-16
   8       0.6458646604555
   9     -0.52695498218434
  10    -9.8907352111984e-17
 Sym= A
 Ene=    0.2812280889
 Spin= Alpha
 Occup=    0.00000
   1    -3.2785290133973e-17
   2    1.2063251564159e-16
   3     -0.52695498218434
   4      -0.6458646604555
   5    -3.9761243152122e-16
   6    -5.2346570542122e-17
   7    1.2071517150154e-16
   8      0.52695498218434
   9       0.6458646604555
  10    3.7924632079032e-17
 Sym= A
 Ene=     1.123000516
 Spin= Alpha
 Occup=    0.00000
   1     -0.12635238672771
   2       1.2029614400642
   3    1.2969439326866e-16
   4    -3.3002117566941e-17
   5       1.2124106389056
   6      0.12635238672771
   7      -1.2029614400642
   8    -6.9596953977669e-17
   9    4.302926106198e-17
  10       1.2124106389056
